M 0.00000 0 (356.68, 296.83, 0.00), (171.93, 209.36), 7.23
M 0.00000 1 (300.25, 128.65, 0.00), (2.02, 224.00), 5.98
M 0.00000 2 (341.96, 340.37, 0.00), (228.49, 439.76), 6.35
M 0.00000 3 (18.31, 125.08, 0.00), (288.16, 16.08), 1.95
M 0.00000 4 (318.38, 57.86, 0.00), (89.36, 111.15), 2.50
M 0.00000 5 (278.07, 243.74, 0.00), (135.06, 268.11), 4.48
M 0.00000 6 (29.91, 115.97, 0.00), (385.55, 160.17), 2.80
M 0.00000 7 (153.07, 214.86, 0.00), (4.03, 196.95), 4.56
M 0.00000 8 (382.15, 48.42, 0.00), (67.47, 192.01), 9.60
M 0.00000 9 (398.88, 309.50, 0.00), (248.41, 111.55), 2.18
s 0.100000000 _7_ AGT  --- 0 cbr 1000 [0 0 0 0] ------- [7:0 1:0 32 0] [0] 0 1
r 0.100000000 _7_ RTR  --- 0 cbr 1000 [0 0 0 0] ------- [7:0 1:0 32 0] [0] 0 1
s 0.100000000 _7_ RTR  --- 0 AODV 48 [0 0 0 0] ------- [7:255 -1:255 30 0] [0x2 1 1 [1 0] [7 4]] (REQUEST)
r 0.101508428 _5_ RTR  --- 0 AODV 48 [0 ffffffff 7 800] ------- [7:255 -1:255 30 0] [0x2 1 1 [1 0] [7 4]] (REQUEST)
r 0.101508524 _6_ RTR  --- 0 AODV 48 [0 ffffffff 7 800] ------- [7:255 -1:255 30 0] [0x2 1 1 [1 0] [7 4]] (REQUEST)
r 0.101508538 _3_ RTR  --- 0 AODV 48 [0 ffffffff 7 800] ------- [7:255 -1:255 30 0] [0x2 1 1 [1 0] [7 4]] (REQUEST)
r 0.101508568 _1_ RTR  --- 0 AODV 48 [0 ffffffff 7 800] ------- [7:255 -1:255 30 0] [0x2 1 1 [1 0] [7 4]] (REQUEST)
s 0.101508568 _1_ RTR  --- 0 AODV 44 [0 0 0 0] ------- [1:255 7:255 30 7] [0x4 1 [1 4] 10.000000] (REPLY)
r 0.101508731 _0_ RTR  --- 0 AODV 48 [0 ffffffff 7 800] ------- [7:255 -1:255 30 0] [0x2 1 1 [1 0] [7 4]] (REQUEST)
r 0.101508757 _2_ RTR  --- 0 AODV 48 [0 ffffffff 7 800] ------- [7:255 -1:255 30 0] [0x2 1 1 [1 0] [7 4]] (REQUEST)
r 0.101508760 _4_ RTR  --- 0 AODV 48 [0 ffffffff 7 800] ------- [7:255 -1:255 30 0] [0x2 1 1 [1 0] [7 4]] (REQUEST)
s 0.103854774 _2_ RTR  --- 0 AODV 48 [0 ffffffff 7 800] ------- [2:255 -1:255 29 0] [0x2 2 1 [1 0] [7 4]] (REQUEST)
s 0.104638156 _3_ RTR  --- 0 AODV 48 [0 ffffffff 7 800] ------- [3:255 -1:255 29 0] [0x2 2 1 [1 0] [7 4]] (REQUEST)
r 0.105225715 _0_ RTR  --- 0 AODV 48 [0 ffffffff 2 800] ------- [2:255 -1:255 29 0] [0x2 2 1 [1 0] [7 4]] (REQUEST)
r 0.105225777 _9_ RTR  --- 0 AODV 48 [0 ffffffff 2 800] ------- [2:255 -1:255 29 0] [0x2 2 1 [1 0] [7 4]] (REQUEST)
r 0.105225946 _5_ RTR  --- 0 AODV 48 [0 ffffffff 2 800] ------- [2:255 -1:255 29 0] [0x2 2 1 [1 0] [7 4]] (REQUEST)
r 0.105226279 _1_ RTR  --- 0 AODV 48 [0 ffffffff 2 800] ------- [2:255 -1:255 29 0] [0x2 2 1 [1 0] [7 4]] (REQUEST)
r 0.105226316 _7_ RTR  --- 0 AODV 48 [0 ffffffff 2 800] ------- [2:255 -1:255 29 0] [0x2 2 1 [1 0] [7 4]] (REQUEST)
s 0.105920162 _5_ RTR  --- 0 AODV 48 [0 ffffffff 7 800] ------- [5:255 -1:255 29 0] [0x2 2 1 [1 0] [7 4]] (REQUEST)
r 0.106949983 _7_ RTR  --- 0 AODV 44 [13a 7 1 800] ------- [1:255 7:255 30 7] [0x4 1 [1 4] 10.000000] (REPLY)
s 0.106949983 _7_ RTR  --- 0 cbr 1020 [0 0 0 0] ------- [7:0 1:0 30 1] [0] 0 1
s 0.107897412 _4_ RTR  --- 0 AODV 48 [0 ffffffff 7 800] ------- [4:255 -1:255 29 0] [0x2 2 1 [1 0] [7 4]] (REQUEST)
r 0.108322725 _0_ RTR  --- 0 AODV 48 [0 ffffffff 5 800] ------- [5:255 -1:255 29 0] [0x2 2 1 [1 0] [7 4]] (REQUEST)
r 0.108322797 _2_ RTR  --- 0 AODV 48 [0 ffffffff 5 800] ------- [5:255 -1:255 29 0] [0x2 2 1 [1 0] [7 4]] (REQUEST)
r 0.108322801 _1_ RTR  --- 0 AODV 48 [0 ffffffff 5 800] ------- [5:255 -1:255 29 0] [0x2 2 1 [1 0] [7 4]] (REQUEST)
r 0.108322838 _7_ RTR  --- 0 AODV 48 [0 ffffffff 5 800] ------- [5:255 -1:255 29 0] [0x2 2 1 [1 0] [7 4]] (REQUEST)
r 0.108322869 _9_ RTR  --- 0 AODV 48 [0 ffffffff 5 800] ------- [5:255 -1:255 29 0] [0x2 2 1 [1 0] [7 4]] (REQUEST)
r 0.108323045 _4_ RTR  --- 0 AODV 48 [0 ffffffff 5 800] ------- [5:255 -1:255 29 0] [0x2 2 1 [1 0] [7 4]] (REQUEST)
r 0.108323146 _8_ RTR  --- 0 AODV 48 [0 ffffffff 5 800] ------- [5:255 -1:255 29 0] [0x2 2 1 [1 0] [7 4]] (REQUEST)
s 0.109500079 _6_ RTR  --- 0 AODV 48 [0 ffffffff 7 800] ------- [6:255 -1:255 29 0] [0x2 2 1 [1 0] [7 4]] (REQUEST)
s 0.109673491 _0_ RTR  --- 0 AODV 48 [0 ffffffff 7 800] ------- [0:255 -1:255 29 0] [0x2 2 1 [1 0] [7 4]] (REQUEST)
s 0.111810557 _8_ RTR  --- 0 AODV 48 [0 ffffffff 5 800] ------- [8:255 -1:255 28 0] [0x2 3 1 [1 0] [7 4]] (REQUEST)
s 0.113823054 _9_ RTR  --- 0 AODV 48 [0 ffffffff 2 800] ------- [9:255 -1:255 28 0] [0x2 3 1 [1 0] [7 4]] (REQUEST)
r 0.117834541 _1_ AGT  --- 0 cbr 1020 [13a 1 7 800] ------- [7:0 1:0 30 1] [0] 1 1
r 0.119067280 _9_ RTR  --- 0 AODV 48 [0 ffffffff 0 800] ------- [0:255 -1:255 29 0] [0x2 2 1 [1 0] [7 4]] (REQUEST)
r 0.119067286 _2_ RTR  --- 0 AODV 48 [0 ffffffff 0 800] ------- [0:255 -1:255 29 0] [0x2 2 1 [1 0] [7 4]] (REQUEST)
r 0.119067445 _5_ RTR  --- 0 AODV 48 [0 ffffffff 0 800] ------- [0:255 -1:255 29 0] [0x2 2 1 [1 0] [7 4]] (REQUEST)
r 0.119067720 _1_ RTR  --- 0 AODV 48 [0 ffffffff 0 800] ------- [0:255 -1:255 29 0] [0x2 2 1 [1 0] [7 4]] (REQUEST)
r 0.119067861 _7_ RTR  --- 0 AODV 48 [0 ffffffff 0 800] ------- [0:255 -1:255 29 0] [0x2 2 1 [1 0] [7 4]] (REQUEST)
r 0.119067936 _4_ RTR  --- 0 AODV 48 [0 ffffffff 0 800] ------- [0:255 -1:255 29 0] [0x2 2 1 [1 0] [7 4]] (REQUEST)
r 0.119067960 _8_ RTR  --- 0 AODV 48 [0 ffffffff 0 800] ------- [0:255 -1:255 29 0] [0x2 2 1 [1 0] [7 4]] (REQUEST)
s 0.120000000 _7_ AGT  --- 1 cbr 1000 [0 0 0 0] ------- [7:0 1:0 32 0] [1] 0 1
r 0.120000000 _7_ RTR  --- 1 cbr 1000 [0 0 0 0] ------- [7:0 1:0 32 0] [1] 0 1
s 0.120000000 _7_ RTR  --- 1 cbr 1020 [0 0 0 0] ------- [7:0 1:0 30 1] [1] 0 1
r 0.120126148 _8_ RTR  --- 0 AODV 48 [0 ffffffff 4 800] ------- [4:255 -1:255 29 0] [0x2 2 1 [1 0] [7 4]] (REQUEST)
r 0.120126180 _1_ RTR  --- 0 AODV 48 [0 ffffffff 4 800] ------- [4:255 -1:255 29 0] [0x2 2 1 [1 0] [7 4]] (REQUEST)
r 0.120126570 _5_ RTR  --- 0 AODV 48 [0 ffffffff 4 800] ------- [4:255 -1:255 29 0] [0x2 2 1 [1 0] [7 4]] (REQUEST)
r 0.120126696 _7_ RTR  --- 0 AODV 48 [0 ffffffff 4 800] ------- [4:255 -1:255 29 0] [0x2 2 1 [1 0] [7 4]] (REQUEST)
r 0.120126741 _0_ RTR  --- 0 AODV 48 [0 ffffffff 4 800] ------- [4:255 -1:255 29 0] [0x2 2 1 [1 0] [7 4]] (REQUEST)
r 0.121104360 _4_ RTR  --- 0 AODV 48 [0 ffffffff 8 800] ------- [8:255 -1:255 28 0] [0x2 3 1 [1 0] [7 4]] (REQUEST)
r 0.121104529 _1_ RTR  --- 0 AODV 48 [0 ffffffff 8 800] ------- [8:255 -1:255 28 0] [0x2 3 1 [1 0] [7 4]] (REQUEST)
r 0.121104884 _5_ RTR  --- 0 AODV 48 [0 ffffffff 8 800] ------- [8:255 -1:255 28 0] [0x2 3 1 [1 0] [7 4]] (REQUEST)
r 0.121104977 _0_ RTR  --- 0 AODV 48 [0 ffffffff 8 800] ------- [8:255 -1:255 28 0] [0x2 3 1 [1 0] [7 4]] (REQUEST)
r 0.122427432 _6_ RTR  --- 0 AODV 48 [0 ffffffff 3 800] ------- [3:255 -1:255 29 0] [0x2 2 1 [1 0] [7 4]] (REQUEST)
r 0.122427921 _7_ RTR  --- 0 AODV 48 [0 ffffffff 3 800] ------- [3:255 -1:255 29 0] [0x2 2 1 [1 0] [7 4]] (REQUEST)
r 0.123485481 _3_ RTR  --- 0 AODV 48 [0 ffffffff 6 800] ------- [6:255 -1:255 29 0] [0x2 2 1 [1 0] [7 4]] (REQUEST)
r 0.123485956 _7_ RTR  --- 0 AODV 48 [0 ffffffff 6 800] ------- [6:255 -1:255 29 0] [0x2 2 1 [1 0] [7 4]] (REQUEST)
r 0.132937659 _1_ AGT  --- 1 cbr 1020 [13a 1 7 800] ------- [7:0 1:0 30 1] [1] 1 1
r 0.134420120 _0_ RTR  --- 0 AODV 48 [0 ffffffff 9 800] ------- [9:255 -1:255 28 0] [0x2 3 1 [1 0] [7 4]] (REQUEST)
r 0.134420189 _2_ RTR  --- 0 AODV 48 [0 ffffffff 9 800] ------- [9:255 -1:255 28 0] [0x2 3 1 [1 0] [7 4]] (REQUEST)
r 0.134420429 _5_ RTR  --- 0 AODV 48 [0 ffffffff 9 800] ------- [9:255 -1:255 28 0] [0x2 3 1 [1 0] [7 4]] (REQUEST)
r 0.134420656 _1_ RTR  --- 0 AODV 48 [0 ffffffff 9 800] ------- [9:255 -1:255 28 0] [0x2 3 1 [1 0] [7 4]] (REQUEST)
s 0.140000000 _7_ AGT  --- 2 cbr 1000 [0 0 0 0] ------- [7:0 1:0 32 0] [2] 0 1
r 0.140000000 _7_ RTR  --- 2 cbr 1000 [0 0 0 0] ------- [7:0 1:0 32 0] [2] 0 1
s 0.140000000 _7_ RTR  --- 2 cbr 1020 [0 0 0 0] ------- [7:0 1:0 30 1] [2] 0 1
r 0.149481703 _1_ AGT  --- 2 cbr 1020 [13a 1 7 800] ------- [7:0 1:0 30 1] [2] 1 1
s 0.160000000 _7_ AGT  --- 3 cbr 1000 [0 0 0 0] ------- [7:0 1:0 32 0] [3] 0 1
r 0.160000000 _7_ RTR  --- 3 cbr 1000 [0 0 0 0] ------- [7:0 1:0 32 0] [3] 0 1
s 0.160000000 _7_ RTR  --- 3 cbr 1020 [0 0 0 0] ------- [7:0 1:0 30 1] [3] 0 1
r 0.169601702 _1_ AGT  --- 3 cbr 1020 [13a 1 7 800] ------- [7:0 1:0 30 1] [3] 1 1
s 0.180000000 _7_ AGT  --- 4 cbr 1000 [0 0 0 0] ------- [7:0 1:0 32 0] [4] 0 1
r 0.180000000 _7_ RTR  --- 4 cbr 1000 [0 0 0 0] ------- [7:0 1:0 32 0] [4] 0 1
s 0.180000000 _7_ RTR  --- 4 cbr 1020 [0 0 0 0] ------- [7:0 1:0 30 1] [4] 0 1
r 0.189921702 _1_ AGT  --- 4 cbr 1020 [13a 1 7 800] ------- [7:0 1:0 30 1] [4] 1 1
s 0.200000000 _7_ AGT  --- 5 cbr 1000 [0 0 0 0] ------- [7:0 1:0 32 0] [5] 0 1
r 0.200000000 _7_ RTR  --- 5 cbr 1000 [0 0 0 0] ------- [7:0 1:0 32 0] [5] 0 1
s 0.200000000 _7_ RTR  --- 5 cbr 1020 [0 0 0 0] ------- [7:0 1:0 30 1] [5] 0 1
r 0.209601701 _1_ AGT  --- 5 cbr 1020 [13a 1 7 800] ------- [7:0 1:0 30 1] [5] 1 1
s 0.220000000 _7_ AGT  --- 6 cbr 1000 [0 0 0 0] ------- [7:0 1:0 32 0] [6] 0 1
r 0.220000000 _7_ RTR  --- 6 cbr 1000 [0 0 0 0] ------- [7:0 1:0 32 0] [6] 0 1
s 0.220000000 _7_ RTR  --- 6 cbr 1020 [0 0 0 0] ------- [7:0 1:0 30 1] [6] 0 1
r 0.229461701 _1_ AGT  --- 6 cbr 1020 [13a 1 7 800] ------- [7:0 1:0 30 1] [6] 1 1
s 0.240000000 _7_ AGT  --- 7 cbr 1000 [0 0 0 0] ------- [7:0 1:0 32 0] [7] 0 1
r 0.240000000 _7_ RTR  --- 7 cbr 1000 [0 0 0 0] ------- [7:0 1:0 32 0] [7] 0 1
s 0.240000000 _7_ RTR  --- 7 cbr 1020 [0 0 0 0] ------- [7:0 1:0 30 1] [7] 0 1
r 0.249741700 _1_ AGT  --- 7 cbr 1020 [13a 1 7 800] ------- [7:0 1:0 30 1] [7] 1 1
s 0.260000000 _7_ AGT  --- 8 cbr 1000 [0 0 0 0] ------- [7:0 1:0 32 0] [8] 0 1
r 0.260000000 _7_ RTR  --- 8 cbr 1000 [0 0 0 0] ------- [7:0 1:0 32 0] [8] 0 1
s 0.260000000 _7_ RTR  --- 8 cbr 1020 [0 0 0 0] ------- [7:0 1:0 30 1] [8] 0 1
r 0.269681700 _1_ AGT  --- 8 cbr 1020 [13a 1 7 800] ------- [7:0 1:0 30 1] [8] 1 1
s 0.280000000 _7_ AGT  --- 9 cbr 1000 [0 0 0 0] ------- [7:0 1:0 32 0] [9] 0 1
r 0.280000000 _7_ RTR  --- 9 cbr 1000 [0 0 0 0] ------- [7:0 1:0 32 0] [9] 0 1
s 0.280000000 _7_ RTR  --- 9 cbr 1020 [0 0 0 0] ------- [7:0 1:0 30 1] [9] 0 1
r 0.289681699 _1_ AGT  --- 9 cbr 1020 [13a 1 7 800] ------- [7:0 1:0 30 1] [9] 1 1
s 0.300000000 _7_ AGT  --- 10 cbr 1000 [0 0 0 0] ------- [7:0 1:0 32 0] [10] 0 1
r 0.300000000 _7_ RTR  --- 10 cbr 1000 [0 0 0 0] ------- [7:0 1:0 32 0] [10] 0 1
s 0.300000000 _7_ RTR  --- 10 cbr 1020 [0 0 0 0] ------- [7:0 1:0 30 1] [10] 0 1
r 0.309401699 _1_ AGT  --- 10 cbr 1020 [13a 1 7 800] ------- [7:0 1:0 30 1] [10] 1 1
s 0.320000000 _7_ AGT  --- 11 cbr 1000 [0 0 0 0] ------- [7:0 1:0 32 0] [11] 0 1
r 0.320000000 _7_ RTR  --- 11 cbr 1000 [0 0 0 0] ------- [7:0 1:0 32 0] [11] 0 1
s 0.320000000 _7_ RTR  --- 11 cbr 1020 [0 0 0 0] ------- [7:0 1:0 30 1] [11] 0 1
r 0.329721699 _1_ AGT  --- 11 cbr 1020 [13a 1 7 800] ------- [7:0 1:0 30 1] [11] 1 1
s 0.340000000 _7_ AGT  --- 12 cbr 1000 [0 0 0 0] ------- [7:0 1:0 32 0] [12] 0 1
r 0.340000000 _7_ RTR  --- 12 cbr 1000 [0 0 0 0] ------- [7:0 1:0 32 0] [12] 0 1
s 0.340000000 _7_ RTR  --- 12 cbr 1020 [0 0 0 0] ------- [7:0 1:0 30 1] [12] 0 1
r 0.349621698 _1_ AGT  --- 12 cbr 1020 [13a 1 7 800] ------- [7:0 1:0 30 1] [12] 1 1
s 0.360000000 _7_ AGT  --- 13 cbr 1000 [0 0 0 0] ------- [7:0 1:0 32 0] [13] 0 1
r 0.360000000 _7_ RTR  --- 13 cbr 1000 [0 0 0 0] ------- [7:0 1:0 32 0] [13] 0 1
s 0.360000000 _7_ RTR  --- 13 cbr 1020 [0 0 0 0] ------- [7:0 1:0 30 1] [13] 0 1
r 0.369701698 _1_ AGT  --- 13 cbr 1020 [13a 1 7 800] ------- [7:0 1:0 30 1] [13] 1 1
s 0.380000000 _7_ AGT  --- 14 cbr 1000 [0 0 0 0] ------- [7:0 1:0 32 0] [14] 0 1
r 0.380000000 _7_ RTR  --- 14 cbr 1000 [0 0 0 0] ------- [7:0 1:0 32 0] [14] 0 1
s 0.380000000 _7_ RTR  --- 14 cbr 1020 [0 0 0 0] ------- [7:0 1:0 30 1] [14] 0 1
r 0.389641697 _1_ AGT  --- 14 cbr 1020 [13a 1 7 800] ------- [7:0 1:0 30 1] [14] 1 1
s 0.400000000 _7_ AGT  --- 15 cbr 1000 [0 0 0 0] ------- [7:0 1:0 32 0] [15] 0 1
r 0.400000000 _7_ RTR  --- 15 cbr 1000 [0 0 0 0] ------- [7:0 1:0 32 0] [15] 0 1
s 0.400000000 _7_ RTR  --- 15 cbr 1020 [0 0 0 0] ------- [7:0 1:0 30 1] [15] 0 1
r 0.409681697 _1_ AGT  --- 15 cbr 1020 [13a 1 7 800] ------- [7:0 1:0 30 1] [15] 1 1
s 0.420000000 _7_ AGT  --- 16 cbr 1000 [0 0 0 0] ------- [7:0 1:0 32 0] [16] 0 1
r 0.420000000 _7_ RTR  --- 16 cbr 1000 [0 0 0 0] ------- [7:0 1:0 32 0] [16] 0 1
s 0.420000000 _7_ RTR  --- 16 cbr 1020 [0 0 0 0] ------- [7:0 1:0 30 1] [16] 0 1
r 0.429881696 _1_ AGT  --- 16 cbr 1020 [13a 1 7 800] ------- [7:0 1:0 30 1] [16] 1 1
s 0.440000000 _7_ AGT  --- 17 cbr 1000 [0 0 0 0] ------- [7:0 1:0 32 0] [17] 0 1
r 0.440000000 _7_ RTR  --- 17 cbr 1000 [0 0 0 0] ------- [7:0 1:0 32 0] [17] 0 1
s 0.440000000 _7_ RTR  --- 17 cbr 1020 [0 0 0 0] ------- [7:0 1:0 30 1] [17] 0 1
r 0.449521696 _1_ AGT  --- 17 cbr 1020 [13a 1 7 800] ------- [7:0 1:0 30 1] [17] 1 1
s 0.460000000 _7_ AGT  --- 18 cbr 1000 [0 0 0 0] ------- [7:0 1:0 32 0] [18] 0 1
r 0.460000000 _7_ RTR  --- 18 cbr 1000 [0 0 0 0] ------- [7:0 1:0 32 0] [18] 0 1
s 0.460000000 _7_ RTR  --- 18 cbr 1020 [0 0 0 0] ------- [7:0 1:0 30 1] [18] 0 1
r 0.469441696 _1_ AGT  --- 18 cbr 1020 [13a 1 7 800] ------- [7:0 1:0 30 1] [18] 1 1
s 0.480000000 _7_ AGT  --- 19 cbr 1000 [0 0 0 0] ------- [7:0 1:0 32 0] [19] 0 1
r 0.480000000 _7_ RTR  --- 19 cbr 1000 [0 0 0 0] ------- [7:0 1:0 32 0] [19] 0 1
s 0.480000000 _7_ RTR  --- 19 cbr 1020 [0 0 0 0] ------- [7:0 1:0 30 1] [19] 0 1
r 0.489521695 _1_ AGT  --- 19 cbr 1020 [13a 1 7 800] ------- [7:0 1:0 30 1] [19] 1 1
s 0.500000000 _7_ AGT  --- 20 cbr 1000 [0 0 0 0] ------- [7:0 1:0 32 0] [20] 0 1
r 0.500000000 _7_ RTR  --- 20 cbr 1000 [0 0 0 0] ------- [7:0 1:0 32 0] [20] 0 1
s 0.500000000 _7_ RTR  --- 20 cbr 1020 [0 0 0 0] ------- [7:0 1:0 30 1] [20] 0 1
r 0.509501695 _1_ AGT  --- 20 cbr 1020 [13a 1 7 800] ------- [7:0 1:0 30 1] [20] 1 1
s 0.520000000 _7_ AGT  --- 21 cbr 1000 [0 0 0 0] ------- [7:0 1:0 32 0] [21] 0 1
r 0.520000000 _7_ RTR  --- 21 cbr 1000 [0 0 0 0] ------- [7:0 1:0 32 0] [21] 0 1
s 0.520000000 _7_ RTR  --- 21 cbr 1020 [0 0 0 0] ------- [7:0 1:0 30 1] [21] 0 1
r 0.529661694 _1_ AGT  --- 21 cbr 1020 [13a 1 7 800] ------- [7:0 1:0 30 1] [21] 1 1
s 0.540000000 _7_ AGT  --- 22 cbr 1000 [0 0 0 0] ------- [7:0 1:0 32 0] [22] 0 1
r 0.540000000 _7_ RTR  --- 22 cbr 1000 [0 0 0 0] ------- [7:0 1:0 32 0] [22] 0 1
s 0.540000000 _7_ RTR  --- 22 cbr 1020 [0 0 0 0] ------- [7:0 1:0 30 1] [22] 0 1
r 0.549461694 _1_ AGT  --- 22 cbr 1020 [13a 1 7 800] ------- [7:0 1:0 30 1] [22] 1 1
s 0.560000000 _7_ AGT  --- 23 cbr 1000 [0 0 0 0] ------- [7:0 1:0 32 0] [23] 0 1
r 0.560000000 _7_ RTR  --- 23 cbr 1000 [0 0 0 0] ------- [7:0 1:0 32 0] [23] 0 1
s 0.560000000 _7_ RTR  --- 23 cbr 1020 [0 0 0 0] ------- [7:0 1:0 30 1] [23] 0 1
r 0.570001693 _1_ AGT  --- 23 cbr 1020 [13a 1 7 800] ------- [7:0 1:0 30 1] [23] 1 1
s 0.580000000 _7_ AGT  --- 24 cbr 1000 [0 0 0 0] ------- [7:0 1:0 32 0] [24] 0 1
r 0.580000000 _7_ RTR  --- 24 cbr 1000 [0 0 0 0] ------- [7:0 1:0 32 0] [24] 0 1
s 0.580000000 _7_ RTR  --- 24 cbr 1020 [0 0 0 0] ------- [7:0 1:0 30 1] [24] 0 1
r 0.589461693 _1_ AGT  --- 24 cbr 1020 [13a 1 7 800] ------- [7:0 1:0 30 1] [24] 1 1
s 0.600000000 _7_ AGT  --- 25 cbr 1000 [0 0 0 0] ------- [7:0 1:0 32 0] [25] 0 1
r 0.600000000 _7_ RTR  --- 25 cbr 1000 [0 0 0 0] ------- [7:0 1:0 32 0] [25] 0 1
s 0.600000000 _7_ RTR  --- 25 cbr 1020 [0 0 0 0] ------- [7:0 1:0 30 1] [25] 0 1
r 0.609521692 _1_ AGT  --- 25 cbr 1020 [13a 1 7 800] ------- [7:0 1:0 30 1] [25] 1 1
s 0.620000000 _7_ AGT  --- 26 cbr 1000 [0 0 0 0] ------- [7:0 1:0 32 0] [26] 0 1
r 0.620000000 _7_ RTR  --- 26 cbr 1000 [0 0 0 0] ------- [7:0 1:0 32 0] [26] 0 1
s 0.620000000 _7_ RTR  --- 26 cbr 1020 [0 0 0 0] ------- [7:0 1:0 30 1] [26] 0 1
r 0.629841692 _1_ AGT  --- 26 cbr 1020 [13a 1 7 800] ------- [7:0 1:0 30 1] [26] 1 1
s 0.640000000 _7_ AGT  --- 27 cbr 1000 [0 0 0 0] ------- [7:0 1:0 32 0] [27] 0 1
r 0.640000000 _7_ RTR  --- 27 cbr 1000 [0 0 0 0] ------- [7:0 1:0 32 0] [27] 0 1
s 0.640000000 _7_ RTR  --- 27 cbr 1020 [0 0 0 0] ------- [7:0 1:0 30 1] [27] 0 1
r 0.649701692 _1_ AGT  --- 27 cbr 1020 [13a 1 7 800] ------- [7:0 1:0 30 1] [27] 1 1
s 0.660000000 _7_ AGT  --- 28 cbr 1000 [0 0 0 0] ------- [7:0 1:0 32 0] [28] 0 1
r 0.660000000 _7_ RTR  --- 28 cbr 1000 [0 0 0 0] ------- [7:0 1:0 32 0] [28] 0 1
s 0.660000000 _7_ RTR  --- 28 cbr 1020 [0 0 0 0] ------- [7:0 1:0 30 1] [28] 0 1
r 0.669701691 _1_ AGT  --- 28 cbr 1020 [13a 1 7 800] ------- [7:0 1:0 30 1] [28] 1 1
s 0.680000000 _7_ AGT  --- 29 cbr 1000 [0 0 0 0] ------- [7:0 1:0 32 0] [29] 0 1
r 0.680000000 _7_ RTR  --- 29 cbr 1000 [0 0 0 0] ------- [7:0 1:0 32 0] [29] 0 1
s 0.680000000 _7_ RTR  --- 29 cbr 1020 [0 0 0 0] ------- [7:0 1:0 30 1] [29] 0 1
r 0.689441691 _1_ AGT  --- 29 cbr 1020 [13a 1 7 800] ------- [7:0 1:0 30 1] [29] 1 1
s 0.700000000 _7_ AGT  --- 30 cbr 1000 [0 0 0 0] ------- [7:0 1:0 32 0] [30] 0 1
r 0.700000000 _7_ RTR  --- 30 cbr 1000 [0 0 0 0] ------- [7:0 1:0 32 0] [30] 0 1
s 0.700000000 _7_ RTR  --- 30 cbr 1020 [0 0 0 0] ------- [7:0 1:0 30 1] [30] 0 1
r 0.709621690 _1_ AGT  --- 30 cbr 1020 [13a 1 7 800] ------- [7:0 1:0 30 1] [30] 1 1
s 0.720000000 _7_ AGT  --- 31 cbr 1000 [0 0 0 0] ------- [7:0 1:0 32 0] [31] 0 1
r 0.720000000 _7_ RTR  --- 31 cbr 1000 [0 0 0 0] ------- [7:0 1:0 32 0] [31] 0 1
s 0.720000000 _7_ RTR  --- 31 cbr 1020 [0 0 0 0] ------- [7:0 1:0 30 1] [31] 0 1
r 0.729561690 _1_ AGT  --- 31 cbr 1020 [13a 1 7 800] ------- [7:0 1:0 30 1] [31] 1 1
s 0.740000000 _7_ AGT  --- 32 cbr 1000 [0 0 0 0] ------- [7:0 1:0 32 0] [32] 0 1
r 0.740000000 _7_ RTR  --- 32 cbr 1000 [0 0 0 0] ------- [7:0 1:0 32 0] [32] 0 1
s 0.740000000 _7_ RTR  --- 32 cbr 1020 [0 0 0 0] ------- [7:0 1:0 30 1] [32] 0 1
r 0.749801689 _1_ AGT  --- 32 cbr 1020 [13a 1 7 800] ------- [7:0 1:0 30 1] [32] 1 1
s 0.760000000 _7_ AGT  --- 33 cbr 1000 [0 0 0 0] ------- [7:0 1:0 32 0] [33] 0 1
r 0.760000000 _7_ RTR  --- 33 cbr 1000 [0 0 0 0] ------- [7:0 1:0 32 0] [33] 0 1
s 0.760000000 _7_ RTR  --- 33 cbr 1020 [0 0 0 0] ------- [7:0 1:0 30 1] [33] 0 1
r 0.769561689 _1_ AGT  --- 33 cbr 1020 [13a 1 7 800] ------- [7:0 1:0 30 1] [33] 1 1
s 0.780000000 _7_ AGT  --- 34 cbr 1000 [0 0 0 0] ------- [7:0 1:0 32 0] [34] 0 1
r 0.780000000 _7_ RTR  --- 34 cbr 1000 [0 0 0 0] ------- [7:0 1:0 32 0] [34] 0 1
s 0.780000000 _7_ RTR  --- 34 cbr 1020 [0 0 0 0] ------- [7:0 1:0 30 1] [34] 0 1
r 0.789401689 _1_ AGT  --- 34 cbr 1020 [13a 1 7 800] ------- [7:0 1:0 30 1] [34] 1 1
s 0.800000000 _7_ AGT  --- 35 cbr 1000 [0 0 0 0] ------- [7:0 1:0 32 0] [35] 0 1
r 0.800000000 _7_ RTR  --- 35 cbr 1000 [0 0 0 0] ------- [7:0 1:0 32 0] [35] 0 1
s 0.800000000 _7_ RTR  --- 35 cbr 1020 [0 0 0 0] ------- [7:0 1:0 30 1] [35] 0 1
r 0.809761688 _1_ AGT  --- 35 cbr 1020 [13a 1 7 800] ------- [7:0 1:0 30 1] [35] 1 1
s 0.820000000 _7_ AGT  --- 36 cbr 1000 [0 0 0 0] ------- [7:0 1:0 32 0] [36] 0 1
r 0.820000000 _7_ RTR  --- 36 cbr 1000 [0 0 0 0] ------- [7:0 1:0 32 0] [36] 0 1
s 0.820000000 _7_ RTR  --- 36 cbr 1020 [0 0 0 0] ------- [7:0 1:0 30 1] [36] 0 1
r 0.829821688 _1_ AGT  --- 36 cbr 1020 [13a 1 7 800] ------- [7:0 1:0 30 1] [36] 1 1
s 0.840000000 _7_ AGT  --- 37 cbr 1000 [0 0 0 0] ------- [7:0 1:0 32 0] [37] 0 1
r 0.840000000 _7_ RTR  --- 37 cbr 1000 [0 0 0 0] ------- [7:0 1:0 32 0] [37] 0 1
s 0.840000000 _7_ RTR  --- 37 cbr 1020 [0 0 0 0] ------- [7:0 1:0 30 1] [37] 0 1
r 0.849721687 _1_ AGT  --- 37 cbr 1020 [13a 1 7 800] ------- [7:0 1:0 30 1] [37] 1 1
s 0.860000000 _7_ AGT  --- 38 cbr 1000 [0 0 0 0] ------- [7:0 1:0 32 0] [38] 0 1
r 0.860000000 _7_ RTR  --- 38 cbr 1000 [0 0 0 0] ------- [7:0 1:0 32 0] [38] 0 1
s 0.860000000 _7_ RTR  --- 38 cbr 1020 [0 0 0 0] ------- [7:0 1:0 30 1] [38] 0 1
r 0.869421687 _1_ AGT  --- 38 cbr 1020 [13a 1 7 800] ------- [7:0 1:0 30 1] [38] 1 1
s 0.880000000 _7_ AGT  --- 39 cbr 1000 [0 0 0 0] ------- [7:0 1:0 32 0] [39] 0 1
r 0.880000000 _7_ RTR  --- 39 cbr 1000 [0 0 0 0] ------- [7:0 1:0 32 0] [39] 0 1
s 0.880000000 _7_ RTR  --- 39 cbr 1020 [0 0 0 0] ------- [7:0 1:0 30 1] [39] 0 1
r 0.889501686 _1_ AGT  --- 39 cbr 1020 [13a 1 7 800] ------- [7:0 1:0 30 1] [39] 1 1
s 0.900000000 _7_ AGT  --- 40 cbr 1000 [0 0 0 0] ------- [7:0 1:0 32 0] [40] 0 1
r 0.900000000 _7_ RTR  --- 40 cbr 1000 [0 0 0 0] ------- [7:0 1:0 32 0] [40] 0 1
s 0.900000000 _7_ RTR  --- 40 cbr 1020 [0 0 0 0] ------- [7:0 1:0 30 1] [40] 0 1
r 0.909461686 _1_ AGT  --- 40 cbr 1020 [13a 1 7 800] ------- [7:0 1:0 30 1] [40] 1 1
s 0.920000000 _7_ AGT  --- 41 cbr 1000 [0 0 0 0] ------- [7:0 1:0 32 0] [41] 0 1
r 0.920000000 _7_ RTR  --- 41 cbr 1000 [0 0 0 0] ------- [7:0 1:0 32 0] [41] 0 1
s 0.920000000 _7_ RTR  --- 41 cbr 1020 [0 0 0 0] ------- [7:0 1:0 30 1] [41] 0 1
r 0.930001685 _1_ AGT  --- 41 cbr 1020 [13a 1 7 800] ------- [7:0 1:0 30 1] [41] 1 1
s 0.940000000 _7_ AGT  --- 42 cbr 1000 [0 0 0 0] ------- [7:0 1:0 32 0] [42] 0 1
r 0.940000000 _7_ RTR  --- 42 cbr 1000 [0 0 0 0] ------- [7:0 1:0 32 0] [42] 0 1
s 0.940000000 _7_ RTR  --- 42 cbr 1020 [0 0 0 0] ------- [7:0 1:0 30 1] [42] 0 1
r 0.949421685 _1_ AGT  --- 42 cbr 1020 [13a 1 7 800] ------- [7:0 1:0 30 1] [42] 1 1
s 0.960000000 _7_ AGT  --- 43 cbr 1000 [0 0 0 0] ------- [7:0 1:0 32 0] [43] 0 1
r 0.960000000 _7_ RTR  --- 43 cbr 1000 [0 0 0 0] ------- [7:0 1:0 32 0] [43] 0 1
s 0.960000000 _7_ RTR  --- 43 cbr 1020 [0 0 0 0] ------- [7:0 1:0 30 1] [43] 0 1
r 0.969461685 _1_ AGT  --- 43 cbr 1020 [13a 1 7 800] ------- [7:0 1:0 30 1] [43] 1 1
s 0.980000000 _7_ AGT  --- 44 cbr 1000 [0 0 0 0] ------- [7:0 1:0 32 0] [44] 0 1
r 0.980000000 _7_ RTR  --- 44 cbr 1000 [0 0 0 0] ------- [7:0 1:0 32 0] [44] 0 1
s 0.980000000 _7_ RTR  --- 44 cbr 1020 [0 0 0 0] ------- [7:0 1:0 30 1] [44] 0 1
r 0.989421684 _1_ AGT  --- 44 cbr 1020 [13a 1 7 800] ------- [7:0 1:0 30 1] [44] 1 1
s 1.000000000 _7_ AGT  --- 45 cbr 1000 [0 0 0 0] ------- [7:0 1:0 32 0] [45] 0 1
r 1.000000000 _7_ RTR  --- 45 cbr 1000 [0 0 0 0] ------- [7:0 1:0 32 0] [45] 0 1
s 1.000000000 _7_ RTR  --- 45 cbr 1020 [0 0 0 0] ------- [7:0 1:0 30 1] [45] 0 1
r 1.009781684 _1_ AGT  --- 45 cbr 1020 [13a 1 7 800] ------- [7:0 1:0 30 1] [45] 1 1
s 1.020000000 _7_ AGT  --- 46 cbr 1000 [0 0 0 0] ------- [7:0 1:0 32 0] [46] 0 1
r 1.020000000 _7_ RTR  --- 46 cbr 1000 [0 0 0 0] ------- [7:0 1:0 32 0] [46] 0 1
s 1.020000000 _7_ RTR  --- 46 cbr 1020 [0 0 0 0] ------- [7:0 1:0 30 1] [46] 0 1
r 1.029781683 _1_ AGT  --- 46 cbr 1020 [13a 1 7 800] ------- [7:0 1:0 30 1] [46] 1 1
s 1.040000000 _7_ AGT  --- 47 cbr 1000 [0 0 0 0] ------- [7:0 1:0 32 0] [47] 0 1
r 1.040000000 _7_ RTR  --- 47 cbr 1000 [0 0 0 0] ------- [7:0 1:0 32 0] [47] 0 1
s 1.040000000 _7_ RTR  --- 47 cbr 1020 [0 0 0 0] ------- [7:0 1:0 30 1] [47] 0 1
r 1.049721683 _1_ AGT  --- 47 cbr 1020 [13a 1 7 800] ------- [7:0 1:0 30 1] [47] 1 1
s 1.060000000 _7_ AGT  --- 48 cbr 1000 [0 0 0 0] ------- [7:0 1:0 32 0] [48] 0 1
r 1.060000000 _7_ RTR  --- 48 cbr 1000 [0 0 0 0] ------- [7:0 1:0 32 0] [48] 0 1
s 1.060000000 _7_ RTR  --- 48 cbr 1020 [0 0 0 0] ------- [7:0 1:0 30 1] [48] 0 1
r 1.069941682 _1_ AGT  --- 48 cbr 1020 [13a 1 7 800] ------- [7:0 1:0 30 1] [48] 1 1
s 1.080000000 _7_ AGT  --- 49 cbr 1000 [0 0 0 0] ------- [7:0 1:0 32 0] [49] 0 1
r 1.080000000 _7_ RTR  --- 49 cbr 1000 [0 0 0 0] ------- [7:0 1:0 32 0] [49] 0 1
s 1.080000000 _7_ RTR  --- 49 cbr 1020 [0 0 0 0] ------- [7:0 1:0 30 1] [49] 0 1
r 1.089541682 _1_ AGT  --- 49 cbr 1020 [13a 1 7 800] ------- [7:0 1:0 30 1] [49] 1 1
s 1.100000000 _7_ AGT  --- 50 cbr 1000 [0 0 0 0] ------- [7:0 1:0 32 0] [50] 0 1
r 1.100000000 _7_ RTR  --- 50 cbr 1000 [0 0 0 0] ------- [7:0 1:0 32 0] [50] 0 1
s 1.100000000 _7_ RTR  --- 50 cbr 1020 [0 0 0 0] ------- [7:0 1:0 30 1] [50] 0 1
r 1.109401682 _1_ AGT  --- 50 cbr 1020 [13a 1 7 800] ------- [7:0 1:0 30 1] [50] 1 1
s 1.120000000 _7_ AGT  --- 51 cbr 1000 [0 0 0 0] ------- [7:0 1:0 32 0] [51] 0 1
r 1.120000000 _7_ RTR  --- 51 cbr 1000 [0 0 0 0] ------- [7:0 1:0 32 0] [51] 0 1
s 1.120000000 _7_ RTR  --- 51 cbr 1020 [0 0 0 0] ------- [7:0 1:0 30 1] [51] 0 1
r 1.129401681 _1_ AGT  --- 51 cbr 1020 [13a 1 7 800] ------- [7:0 1:0 30 1] [51] 1 1
s 1.140000000 _7_ AGT  --- 52 cbr 1000 [0 0 0 0] ------- [7:0 1:0 32 0] [52] 0 1
r 1.140000000 _7_ RTR  --- 52 cbr 1000 [0 0 0 0] ------- [7:0 1:0 32 0] [52] 0 1
s 1.140000000 _7_ RTR  --- 52 cbr 1020 [0 0 0 0] ------- [7:0 1:0 30 1] [52] 0 1
r 1.149961681 _1_ AGT  --- 52 cbr 1020 [13a 1 7 800] ------- [7:0 1:0 30 1] [52] 1 1
s 1.160000000 _7_ AGT  --- 53 cbr 1000 [0 0 0 0] ------- [7:0 1:0 32 0] [53] 0 1
r 1.160000000 _7_ RTR  --- 53 cbr 1000 [0 0 0 0] ------- [7:0 1:0 32 0] [53] 0 1
s 1.160000000 _7_ RTR  --- 53 cbr 1020 [0 0 0 0] ------- [7:0 1:0 30 1] [53] 0 1
r 1.169981680 _1_ AGT  --- 53 cbr 1020 [13a 1 7 800] ------- [7:0 1:0 30 1] [53] 1 1
s 1.180000000 _7_ AGT  --- 54 cbr 1000 [0 0 0 0] ------- [7:0 1:0 32 0] [54] 0 1
r 1.180000000 _7_ RTR  --- 54 cbr 1000 [0 0 0 0] ------- [7:0 1:0 32 0] [54] 0 1
s 1.180000000 _7_ RTR  --- 54 cbr 1020 [0 0 0 0] ------- [7:0 1:0 30 1] [54] 0 1
r 1.189921680 _1_ AGT  --- 54 cbr 1020 [13a 1 7 800] ------- [7:0 1:0 30 1] [54] 1 1
s 1.200000000 _7_ AGT  --- 55 cbr 1000 [0 0 0 0] ------- [7:0 1:0 32 0] [55] 0 1
r 1.200000000 _7_ RTR  --- 55 cbr 1000 [0 0 0 0] ------- [7:0 1:0 32 0] [55] 0 1
s 1.200000000 _7_ RTR  --- 55 cbr 1020 [0 0 0 0] ------- [7:0 1:0 30 1] [55] 0 1
r 1.209641679 _1_ AGT  --- 55 cbr 1020 [13a 1 7 800] ------- [7:0 1:0 30 1] [55] 1 1
s 1.220000000 _7_ AGT  --- 56 cbr 1000 [0 0 0 0] ------- [7:0 1:0 32 0] [56] 0 1
r 1.220000000 _7_ RTR  --- 56 cbr 1000 [0 0 0 0] ------- [7:0 1:0 32 0] [56] 0 1
s 1.220000000 _7_ RTR  --- 56 cbr 1020 [0 0 0 0] ------- [7:0 1:0 30 1] [56] 0 1
r 1.229501679 _1_ AGT  --- 56 cbr 1020 [13a 1 7 800] ------- [7:0 1:0 30 1] [56] 1 1
s 1.240000000 _7_ AGT  --- 57 cbr 1000 [0 0 0 0] ------- [7:0 1:0 32 0] [57] 0 1
r 1.240000000 _7_ RTR  --- 57 cbr 1000 [0 0 0 0] ------- [7:0 1:0 32 0] [57] 0 1
s 1.240000000 _7_ RTR  --- 57 cbr 1020 [0 0 0 0] ------- [7:0 1:0 30 1] [57] 0 1
r 1.249401678 _1_ AGT  --- 57 cbr 1020 [13a 1 7 800] ------- [7:0 1:0 30 1] [57] 1 1
s 1.260000000 _7_ AGT  --- 58 cbr 1000 [0 0 0 0] ------- [7:0 1:0 32 0] [58] 0 1
r 1.260000000 _7_ RTR  --- 58 cbr 1000 [0 0 0 0] ------- [7:0 1:0 32 0] [58] 0 1
s 1.260000000 _7_ RTR  --- 58 cbr 1020 [0 0 0 0] ------- [7:0 1:0 30 1] [58] 0 1
r 1.269901678 _1_ AGT  --- 58 cbr 1020 [13a 1 7 800] ------- [7:0 1:0 30 1] [58] 1 1
s 1.280000000 _7_ AGT  --- 59 cbr 1000 [0 0 0 0] ------- [7:0 1:0 32 0] [59] 0 1
r 1.280000000 _7_ RTR  --- 59 cbr 1000 [0 0 0 0] ------- [7:0 1:0 32 0] [59] 0 1
s 1.280000000 _7_ RTR  --- 59 cbr 1020 [0 0 0 0] ------- [7:0 1:0 30 1] [59] 0 1
r 1.289401678 _1_ AGT  --- 59 cbr 1020 [13a 1 7 800] ------- [7:0 1:0 30 1] [59] 1 1
s 1.300000000 _7_ AGT  --- 60 cbr 1000 [0 0 0 0] ------- [7:0 1:0 32 0] [60] 0 1
r 1.300000000 _7_ RTR  --- 60 cbr 1000 [0 0 0 0] ------- [7:0 1:0 32 0] [60] 0 1
s 1.300000000 _7_ RTR  --- 60 cbr 1020 [0 0 0 0] ------- [7:0 1:0 30 1] [60] 0 1
r 1.309761677 _1_ AGT  --- 60 cbr 1020 [13a 1 7 800] ------- [7:0 1:0 30 1] [60] 1 1
s 1.320000000 _7_ AGT  --- 61 cbr 1000 [0 0 0 0] ------- [7:0 1:0 32 0] [61] 0 1
r 1.320000000 _7_ RTR  --- 61 cbr 1000 [0 0 0 0] ------- [7:0 1:0 32 0] [61] 0 1
s 1.320000000 _7_ RTR  --- 61 cbr 1020 [0 0 0 0] ------- [7:0 1:0 30 1] [61] 0 1
r 1.329901677 _1_ AGT  --- 61 cbr 1020 [13a 1 7 800] ------- [7:0 1:0 30 1] [61] 1 1
s 1.340000000 _7_ AGT  --- 62 cbr 1000 [0 0 0 0] ------- [7:0 1:0 32 0] [62] 0 1
r 1.340000000 _7_ RTR  --- 62 cbr 1000 [0 0 0 0] ------- [7:0 1:0 32 0] [62] 0 1
s 1.340000000 _7_ RTR  --- 62 cbr 1020 [0 0 0 0] ------- [7:0 1:0 30 1] [62] 0 1
r 1.349541676 _1_ AGT  --- 62 cbr 1020 [13a 1 7 800] ------- [7:0 1:0 30 1] [62] 1 1
s 1.360000000 _7_ AGT  --- 63 cbr 1000 [0 0 0 0] ------- [7:0 1:0 32 0] [63] 0 1
r 1.360000000 _7_ RTR  --- 63 cbr 1000 [0 0 0 0] ------- [7:0 1:0 32 0] [63] 0 1
s 1.360000000 _7_ RTR  --- 63 cbr 1020 [0 0 0 0] ------- [7:0 1:0 30 1] [63] 0 1
r 1.369941676 _1_ AGT  --- 63 cbr 1020 [13a 1 7 800] ------- [7:0 1:0 30 1] [63] 1 1
s 1.380000000 _7_ AGT  --- 64 cbr 1000 [0 0 0 0] ------- [7:0 1:0 32 0] [64] 0 1
r 1.380000000 _7_ RTR  --- 64 cbr 1000 [0 0 0 0] ------- [7:0 1:0 32 0] [64] 0 1
s 1.380000000 _7_ RTR  --- 64 cbr 1020 [0 0 0 0] ------- [7:0 1:0 30 1] [64] 0 1
r 1.389881675 _1_ AGT  --- 64 cbr 1020 [13a 1 7 800] ------- [7:0 1:0 30 1] [64] 1 1
s 1.400000000 _7_ AGT  --- 65 cbr 1000 [0 0 0 0] ------- [7:0 1:0 32 0] [65] 0 1
r 1.400000000 _7_ RTR  --- 65 cbr 1000 [0 0 0 0] ------- [7:0 1:0 32 0] [65] 0 1
s 1.400000000 _7_ RTR  --- 65 cbr 1020 [0 0 0 0] ------- [7:0 1:0 30 1] [65] 0 1
r 1.409401675 _1_ AGT  --- 65 cbr 1020 [13a 1 7 800] ------- [7:0 1:0 30 1] [65] 1 1
s 1.420000000 _7_ AGT  --- 66 cbr 1000 [0 0 0 0] ------- [7:0 1:0 32 0] [66] 0 1
r 1.420000000 _7_ RTR  --- 66 cbr 1000 [0 0 0 0] ------- [7:0 1:0 32 0] [66] 0 1
s 1.420000000 _7_ RTR  --- 66 cbr 1020 [0 0 0 0] ------- [7:0 1:0 30 1] [66] 0 1
r 1.429961675 _1_ AGT  --- 66 cbr 1020 [13a 1 7 800] ------- [7:0 1:0 30 1] [66] 1 1
s 1.440000000 _7_ AGT  --- 67 cbr 1000 [0 0 0 0] ------- [7:0 1:0 32 0] [67] 0 1
r 1.440000000 _7_ RTR  --- 67 cbr 1000 [0 0 0 0] ------- [7:0 1:0 32 0] [67] 0 1
s 1.440000000 _7_ RTR  --- 67 cbr 1020 [0 0 0 0] ------- [7:0 1:0 30 1] [67] 0 1
r 1.449741674 _1_ AGT  --- 67 cbr 1020 [13a 1 7 800] ------- [7:0 1:0 30 1] [67] 1 1
s 1.460000000 _7_ AGT  --- 68 cbr 1000 [0 0 0 0] ------- [7:0 1:0 32 0] [68] 0 1
r 1.460000000 _7_ RTR  --- 68 cbr 1000 [0 0 0 0] ------- [7:0 1:0 32 0] [68] 0 1
s 1.460000000 _7_ RTR  --- 68 cbr 1020 [0 0 0 0] ------- [7:0 1:0 30 1] [68] 0 1
r 1.469881674 _1_ AGT  --- 68 cbr 1020 [13a 1 7 800] ------- [7:0 1:0 30 1] [68] 1 1
s 1.480000000 _7_ AGT  --- 69 cbr 1000 [0 0 0 0] ------- [7:0 1:0 32 0] [69] 0 1
r 1.480000000 _7_ RTR  --- 69 cbr 1000 [0 0 0 0] ------- [7:0 1:0 32 0] [69] 0 1
s 1.480000000 _7_ RTR  --- 69 cbr 1020 [0 0 0 0] ------- [7:0 1:0 30 1] [69] 0 1
r 1.489921673 _1_ AGT  --- 69 cbr 1020 [13a 1 7 800] ------- [7:0 1:0 30 1] [69] 1 1
s 1.500000000 _7_ AGT  --- 70 cbr 1000 [0 0 0 0] ------- [7:0 1:0 32 0] [70] 0 1
r 1.500000000 _7_ RTR  --- 70 cbr 1000 [0 0 0 0] ------- [7:0 1:0 32 0] [70] 0 1
s 1.500000000 _7_ RTR  --- 70 cbr 1020 [0 0 0 0] ------- [7:0 1:0 30 1] [70] 0 1