+ 0 0 2 cbr 1000 ------- 1 0.0 4.0 0 0
- 0 0 2 cbr 1000 ------- 1 0.0 4.0 0 0
+ 0 1 2 cbr 1000 ------- 2 1.0 5.0 0 1
- 0 1 2 cbr 1000 ------- 2 1.0 5.0 0 1
+ 0.01 0 2 cbr 1000 ------- 1 0.0 4.0 1 2
- 0.01 0 2 cbr 1000 ------- 1 0.0 4.0 1 2
+ 0.01 1 2 cbr 1000 ------- 2 1.0 5.0 1 3
- 0.01 1 2 cbr 1000 ------- 2 1.0 5.0 1 3
+ 0.02 0 2 cbr 1000 ------- 1 0.0 4.0 2 4
- 0.02 0 2 cbr 1000 ------- 1 0.0 4.0 2 4
+ 0.02 1 2 cbr 1000 ------- 2 1.0 5.0 2 5
- 0.02 1 2 cbr 1000 ------- 2 1.0 5.0 2 5
+ 0.03 0 2 cbr 1000 ------- 1 0.0 4.0 3 6
- 0.03 0 2 cbr 1000 ------- 1 0.0 4.0 3 6
+ 0.03 1 2 cbr 1000 ------- 2 1.0 5.0 3 7
- 0.03 1 2 cbr 1000 ------- 2 1.0 5.0 3 7
+ 0.04 0 2 cbr 1000 ------- 1 0.0 4.0 4 8
- 0.04 0 2 cbr 1000 ------- 1 0.0 4.0 4 8
+ 0.04 1 2 cbr 1000 ------- 2 1.0 5.0 4 9
- 0.04 1 2 cbr 1000 ------- 2 1.0 5.0 4 9
+ 0.05 0 2 cbr 1000 ------- 1 0.0 4.0 5 10
- 0.05 0 2 cbr 1000 ------- 1 0.0 4.0 5 10
+ 0.05 1 2 cbr 1000 ------- 2 1.0 5.0 5 11
- 0.05 1 2 cbr 1000 ------- 2 1.0 5.0 5 11
r 0.058 0 2 cbr 1000 ------- 1 0.0 4.0 0 0
+ 0.058 2 3 cbr 1000 ------- 1 0.0 4.0 0 0
- 0.058 2 3 cbr 1000 ------- 1 0.0 4.0 0 0
r 0.058 1 2 cbr 1000 ------- 2 1.0 5.0 0 1
+ 0.058 2 3 cbr 1000 ------- 2 1.0 5.0 0 1
+ 0.06 0 2 cbr 1000 ------- 1 0.0 4.0 6 12
- 0.06 0 2 cbr 1000 ------- 1 0.0 4.0 6 12
+ 0.06 1 2 cbr 1000 ------- 2 1.0 5.0 6 13
- 0.06 1 2 cbr 1000 ------- 2 1.0 5.0 6 13
- 0.066 2 3 cbr 1000 ------- 2 1.0 5.0 0 1
r 0.068 0 2 cbr 1000 ------- 1 0.0 4.0 1 2
+ 0.068 2 3 cbr 1000 ------- 1 0.0 4.0 1 2
r 0.068 1 2 cbr 1000 ------- 2 1.0 5.0 1 3
+ 0.068 2 3 cbr 1000 ------- 2 1.0 5.0 1 3
+ 0.07 0 2 cbr 1000 ------- 1 0.0 4.0 7 14
- 0.07 0 2 cbr 1000 ------- 1 0.0 4.0 7 14
+ 0.07 1 2 cbr 1000 ------- 2 1.0 5.0 7 15
- 0.07 1 2 cbr 1000 ------- 2 1.0 5.0 7 15
- 0.074 2 3 cbr 1000 ------- 1 0.0 4.0 1 2
r 0.078 0 2 cbr 1000 ------- 1 0.0 4.0 2 4
+ 0.078 2 3 cbr 1000 ------- 1 0.0 4.0 2 4
r 0.078 1 2 cbr 1000 ------- 2 1.0 5.0 2 5
+ 0.078 2 3 cbr 1000 ------- 2 1.0 5.0 2 5
+ 0.08 0 2 cbr 1000 ------- 1 0.0 4.0 8 16
- 0.08 0 2 cbr 1000 ------- 1 0.0 4.0 8 16
+ 0.08 1 2 cbr 1000 ------- 2 1.0 5.0 8 17
- 0.08 1 2 cbr 1000 ------- 2 1.0 5.0 8 17
- 0.082 2 3 cbr 1000 ------- 2 1.0 5.0 1 3
r 0.088 0 2 cbr 1000 ------- 1 0.0 4.0 3 6
+ 0.088 2 3 cbr 1000 ------- 1 0.0 4.0 3 6
r 0.088 1 2 cbr 1000 ------- 2 1.0 5.0 3 7
+ 0.088 2 3 cbr 1000 ------- 2 1.0 5.0 3 7
+ 0.09 0 2 cbr 1000 ------- 1 0.0 4.0 9 18
- 0.09 0 2 cbr 1000 ------- 1 0.0 4.0 9 18
+ 0.09 1 2 cbr 1000 ------- 2 1.0 5.0 9 19
- 0.09 1 2 cbr 1000 ------- 2 1.0 5.0 9 19
- 0.09 2 3 cbr 1000 ------- 1 0.0 4.0 2 4
r 0.098 0 2 cbr 1000 ------- 1 0.0 4.0 4 8
+ 0.098 2 3 cbr 1000 ------- 1 0.0 4.0 4 8
r 0.098 1 2 cbr 1000 ------- 2 1.0 5.0 4 9
+ 0.098 2 3 cbr 1000 ------- 2 1.0 5.0 4 9
- 0.098 2 3 cbr 1000 ------- 2 1.0 5.0 2 5
+ 0.1 0 2 cbr 1000 ------- 1 0.0 4.0 10 20
- 0.1 0 2 cbr 1000 ------- 1 0.0 4.0 10 20
+ 0.1 1 2 cbr 1000 ------- 2 1.0 5.0 10 21
- 0.1 1 2 cbr 1000 ------- 2 1.0 5.0 10 21
- 0.106 2 3 cbr 1000 ------- 1 0.0 4.0 3 6
r 0.108 0 2 cbr 1000 ------- 1 0.0 4.0 5 10
+ 0.108 2 3 cbr 1000 ------- 1 0.0 4.0 5 10
r 0.108 1 2 cbr 1000 ------- 2 1.0 5.0 5 11
+ 0.108 2 3 cbr 1000 ------- 2 1.0 5.0 5 11
+ 0.11 0 2 cbr 1000 ------- 1 0.0 4.0 11 22
- 0.11 0 2 cbr 1000 ------- 1 0.0 4.0 11 22
+ 0.11 1 2 cbr 1000 ------- 2 1.0 5.0 11 23
- 0.11 1 2 cbr 1000 ------- 2 1.0 5.0 11 23
- 0.114 2 3 cbr 1000 ------- 2 1.0 5.0 3 7
r 0.116 2 3 cbr 1000 ------- 1 0.0 4.0 0 0
+ 0.116 3 4 cbr 1000 ------- 1 0.0 4.0 0 0
- 0.116 3 4 cbr 1000 ------- 1 0.0 4.0 0 0
r 0.118 0 2 cbr 1000 ------- 1 0.0 4.0 6 12
+ 0.118 2 3 cbr 1000 ------- 1 0.0 4.0 6 12
r 0.118 1 2 cbr 1000 ------- 2 1.0 5.0 6 13
+ 0.118 2 3 cbr 1000 ------- 2 1.0 5.0 6 13
+ 0.12 0 2 cbr 1000 ------- 1 0.0 4.0 12 24
- 0.12 0 2 cbr 1000 ------- 1 0.0 4.0 12 24
+ 0.12 1 2 cbr 1000 ------- 2 1.0 5.0 12 25
- 0.12 1 2 cbr 1000 ------- 2 1.0 5.0 12 25
- 0.122 2 3 cbr 1000 ------- 1 0.0 4.0 4 8
r 0.124 2 3 cbr 1000 ------- 2 1.0 5.0 0 1
+ 0.124 3 5 cbr 1000 ------- 2 1.0 5.0 0 1
- 0.124 3 5 cbr 1000 ------- 2 1.0 5.0 0 1
r 0.128 0 2 cbr 1000 ------- 1 0.0 4.0 7 14
+ 0.128 2 3 cbr 1000 ------- 1 0.0 4.0 7 14
r 0.128 1 2 cbr 1000 ------- 2 1.0 5.0 7 15
+ 0.128 2 3 cbr 1000 ------- 2 1.0 5.0 7 15
+ 0.13 0 2 cbr 1000 ------- 1 0.0 4.0 13 26
- 0.13 0 2 cbr 1000 ------- 1 0.0 4.0 13 26
+ 0.13 1 2 cbr 1000 ------- 2 1.0 5.0 13 27
- 0.13 1 2 cbr 1000 ------- 2 1.0 5.0 13 27
- 0.13 2 3 cbr 1000 ------- 2 1.0 5.0 4 9
r 0.132 2 3 cbr 1000 ------- 1 0.0 4.0 1 2
+ 0.132 3 4 cbr 1000 ------- 1 0.0 4.0 1 2
- 0.132 3 4 cbr 1000 ------- 1 0.0 4.0 1 2
r 0.138 0 2 cbr 1000 ------- 1 0.0 4.0 8 16
+ 0.138 2 3 cbr 1000 ------- 1 0.0 4.0 8 16
r 0.138 1 2 cbr 1000 ------- 2 1.0 5.0 8 17
+ 0.138 2 3 cbr 1000 ------- 2 1.0 5.0 8 17
- 0.138 2 3 cbr 1000 ------- 1 0.0 4.0 5 10
+ 0.14 0 2 cbr 1000 ------- 1 0.0 4.0 14 28
- 0.14 0 2 cbr 1000 ------- 1 0.0 4.0 14 28
+ 0.14 1 2 cbr 1000 ------- 2 1.0 5.0 14 29
- 0.14 1 2 cbr 1000 ------- 2 1.0 5.0 14 29
r 0.14 2 3 cbr 1000 ------- 2 1.0 5.0 1 3
+ 0.14 3 5 cbr 1000 ------- 2 1.0 5.0 1 3
- 0.14 3 5 cbr 1000 ------- 2 1.0 5.0 1 3
- 0.146 2 3 cbr 1000 ------- 2 1.0 5.0 5 11
r 0.148 0 2 cbr 1000 ------- 1 0.0 4.0 9 18
+ 0.148 2 3 cbr 1000 ------- 1 0.0 4.0 9 18
r 0.148 1 2 cbr 1000 ------- 2 1.0 5.0 9 19
+ 0.148 2 3 cbr 1000 ------- 2 1.0 5.0 9 19
r 0.148 2 3 cbr 1000 ------- 1 0.0 4.0 2 4
+ 0.148 3 4 cbr 1000 ------- 1 0.0 4.0 2 4
- 0.148 3 4 cbr 1000 ------- 1 0.0 4.0 2 4
+ 0.15 0 2 cbr 1000 ------- 1 0.0 4.0 15 30
- 0.15 0 2 cbr 1000 ------- 1 0.0 4.0 15 30
+ 0.15 1 2 cbr 1000 ------- 2 1.0 5.0 15 31
- 0.15 1 2 cbr 1000 ------- 2 1.0 5.0 15 31
- 0.154 2 3 cbr 1000 ------- 1 0.0 4.0 6 12
r 0.156 2 3 cbr 1000 ------- 2 1.0 5.0 2 5
+ 0.156 3 5 cbr 1000 ------- 2 1.0 5.0 2 5
- 0.156 3 5 cbr 1000 ------- 2 1.0 5.0 2 5
r 0.158 0 2 cbr 1000 ------- 1 0.0 4.0 10 20
+ 0.158 2 3 cbr 1000 ------- 1 0.0 4.0 10 20
r 0.158 1 2 cbr 1000 ------- 2 1.0 5.0 10 21
+ 0.158 2 3 cbr 1000 ------- 2 1.0 5.0 10 21
+ 0.16 0 2 cbr 1000 ------- 1 0.0 4.0 16 32
- 0.16 0 2 cbr 1000 ------- 1 0.0 4.0 16 32
+ 0.16 1 2 cbr 1000 ------- 2 1.0 5.0 16 33
- 0.16 1 2 cbr 1000 ------- 2 1.0 5.0 16 33
- 0.162 2 3 cbr 1000 ------- 2 1.0 5.0 6 13
r 0.164 2 3 cbr 1000 ------- 1 0.0 4.0 3 6
+ 0.164 3 4 cbr 1000 ------- 1 0.0 4.0 3 6
- 0.164 3 4 cbr 1000 ------- 1 0.0 4.0 3 6
r 0.168 0 2 cbr 1000 ------- 1 0.0 4.0 11 22
+ 0.168 2 3 cbr 1000 ------- 1 0.0 4.0 11 22
r 0.168 1 2 cbr 1000 ------- 2 1.0 5.0 11 23
+ 0.168 2 3 cbr 1000 ------- 2 1.0 5.0 11 23
+ 0.17 0 2 cbr 1000 ------- 1 0.0 4.0 17 34
- 0.17 0 2 cbr 1000 ------- 1 0.0 4.0 17 34
+ 0.17 1 2 cbr 1000 ------- 2 1.0 5.0 17 35
- 0.17 1 2 cbr 1000 ------- 2 1.0 5.0 17 35
- 0.17 2 3 cbr 1000 ------- 1 0.0 4.0 7 14
r 0.172 2 3 cbr 1000 ------- 2 1.0 5.0 3 7
+ 0.172 3 5 cbr 1000 ------- 2 1.0 5.0 3 7
- 0.172 3 5 cbr 1000 ------- 2 1.0 5.0 3 7
r 0.174 3 4 cbr 1000 ------- 1 0.0 4.0 0 0
r 0.178 0 2 cbr 1000 ------- 1 0.0 4.0 12 24
+ 0.178 2 3 cbr 1000 ------- 1 0.0 4.0 12 24
r 0.178 1 2 cbr 1000 ------- 2 1.0 5.0 12 25
+ 0.178 2 3 cbr 1000 ------- 2 1.0 5.0 12 25
- 0.178 2 3 cbr 1000 ------- 2 1.0 5.0 7 15
+ 0.18 0 2 cbr 1000 ------- 1 0.0 4.0 18 36
- 0.18 0 2 cbr 1000 ------- 1 0.0 4.0 18 36
+ 0.18 1 2 cbr 1000 ------- 2 1.0 5.0 18 37
- 0.18 1 2 cbr 1000 ------- 2 1.0 5.0 18 37
r 0.18 2 3 cbr 1000 ------- 1 0.0 4.0 4 8
+ 0.18 3 4 cbr 1000 ------- 1 0.0 4.0 4 8
- 0.18 3 4 cbr 1000 ------- 1 0.0 4.0 4 8
r 0.182 3 5 cbr 1000 ------- 2 1.0 5.0 0 1
- 0.186 2 3 cbr 1000 ------- 1 0.0 4.0 8 16
r 0.188 0 2 cbr 1000 ------- 1 0.0 4.0 13 26
+ 0.188 2 3 cbr 1000 ------- 1 0.0 4.0 13 26
r 0.188 1 2 cbr 1000 ------- 2 1.0 5.0 13 27
+ 0.188 2 3 cbr 1000 ------- 2 1.0 5.0 13 27
r 0.188 2 3 cbr 1000 ------- 2 1.0 5.0 4 9
+ 0.188 3 5 cbr 1000 ------- 2 1.0 5.0 4 9
- 0.188 3 5 cbr 1000 ------- 2 1.0 5.0 4 9
r 0.19 3 4 cbr 1000 ------- 1 0.0 4.0 1 2
+ 0.19 0 2 cbr 1000 ------- 1 0.0 4.0 19 38
- 0.19 0 2 cbr 1000 ------- 1 0.0 4.0 19 38
+ 0.19 1 2 cbr 1000 ------- 2 1.0 5.0 19 39
- 0.19 1 2 cbr 1000 ------- 2 1.0 5.0 19 39
- 0.194 2 3 cbr 1000 ------- 2 1.0 5.0 8 17
r 0.196 2 3 cbr 1000 ------- 1 0.0 4.0 5 10
+ 0.196 3 4 cbr 1000 ------- 1 0.0 4.0 5 10
- 0.196 3 4 cbr 1000 ------- 1 0.0 4.0 5 10
r 0.198 0 2 cbr 1000 ------- 1 0.0 4.0 14 28
+ 0.198 2 3 cbr 1000 ------- 1 0.0 4.0 14 28
r 0.198 1 2 cbr 1000 ------- 2 1.0 5.0 14 29
+ 0.198 2 3 cbr 1000 ------- 2 1.0 5.0 14 29
r 0.198 3 5 cbr 1000 ------- 2 1.0 5.0 1 3
+ 0.2 0 2 cbr 1000 ------- 1 0.0 4.0 20 40
- 0.2 0 2 cbr 1000 ------- 1 0.0 4.0 20 40
+ 0.2 1 2 cbr 1000 ------- 2 1.0 5.0 20 41
- 0.2 1 2 cbr 1000 ------- 2 1.0 5.0 20 41
- 0.202 2 3 cbr 1000 ------- 1 0.0 4.0 9 18
r 0.204 2 3 cbr 1000 ------- 2 1.0 5.0 5 11
+ 0.204 3 5 cbr 1000 ------- 2 1.0 5.0 5 11
- 0.204 3 5 cbr 1000 ------- 2 1.0 5.0 5 11
r 0.206 3 4 cbr 1000 ------- 1 0.0 4.0 2 4
r 0.208 0 2 cbr 1000 ------- 1 0.0 4.0 15 30
+ 0.208 2 3 cbr 1000 ------- 1 0.0 4.0 15 30
r 0.208 1 2 cbr 1000 ------- 2 1.0 5.0 15 31
+ 0.208 2 3 cbr 1000 ------- 2 1.0 5.0 15 31
+ 0.21 0 2 cbr 1000 ------- 1 0.0 4.0 21 42
- 0.21 0 2 cbr 1000 ------- 1 0.0 4.0 21 42
+ 0.21 1 2 cbr 1000 ------- 2 1.0 5.0 21 43
- 0.21 1 2 cbr 1000 ------- 2 1.0 5.0 21 43
- 0.21 2 3 cbr 1000 ------- 2 1.0 5.0 9 19
r 0.212 2 3 cbr 1000 ------- 1 0.0 4.0 6 12
+ 0.212 3 4 cbr 1000 ------- 1 0.0 4.0 6 12
- 0.212 3 4 cbr 1000 ------- 1 0.0 4.0 6 12
r 0.214 3 5 cbr 1000 ------- 2 1.0 5.0 2 5
r 0.218 0 2 cbr 1000 ------- 1 0.0 4.0 16 32
+ 0.218 2 3 cbr 1000 ------- 1 0.0 4.0 16 32
r 0.218 1 2 cbr 1000 ------- 2 1.0 5.0 16 33
+ 0.218 2 3 cbr 1000 ------- 2 1.0 5.0 16 33
- 0.218 2 3 cbr 1000 ------- 1 0.0 4.0 10 20
+ 0.22 0 2 cbr 1000 ------- 1 0.0 4.0 22 44
- 0.22 0 2 cbr 1000 ------- 1 0.0 4.0 22 44
+ 0.22 1 2 cbr 1000 ------- 2 1.0 5.0 22 45
- 0.22 1 2 cbr 1000 ------- 2 1.0 5.0 22 45
r 0.22 2 3 cbr 1000 ------- 2 1.0 5.0 6 13
+ 0.22 3 5 cbr 1000 ------- 2 1.0 5.0 6 13
- 0.22 3 5 cbr 1000 ------- 2 1.0 5.0 6 13
r 0.222 3 4 cbr 1000 ------- 1 0.0 4.0 3 6
- 0.226 2 3 cbr 1000 ------- 2 1.0 5.0 10 21
r 0.228 0 2 cbr 1000 ------- 1 0.0 4.0 17 34
+ 0.228 2 3 cbr 1000 ------- 1 0.0 4.0 17 34
r 0.228 1 2 cbr 1000 ------- 2 1.0 5.0 17 35
+ 0.228 2 3 cbr 1000 ------- 2 1.0 5.0 17 35
r 0.228 2 3 cbr 1000 ------- 1 0.0 4.0 7 14
+ 0.228 3 4 cbr 1000 ------- 1 0.0 4.0 7 14
- 0.228 3 4 cbr 1000 ------- 1 0.0 4.0 7 14
r 0.23 3 5 cbr 1000 ------- 2 1.0 5.0 3 7
+ 0.23 0 2 cbr 1000 ------- 1 0.0 4.0 23 46
- 0.23 0 2 cbr 1000 ------- 1 0.0 4.0 23 46
+ 0.23 1 2 cbr 1000 ------- 2 1.0 5.0 23 47
- 0.23 1 2 cbr 1000 ------- 2 1.0 5.0 23 47
- 0.234 2 3 cbr 1000 ------- 1 0.0 4.0 11 22
r 0.236 2 3 cbr 1000 ------- 2 1.0 5.0 7 15
+ 0.236 3 5 cbr 1000 ------- 2 1.0 5.0 7 15
- 0.236 3 5 cbr 1000 ------- 2 1.0 5.0 7 15
r 0.238 0 2 cbr 1000 ------- 1 0.0 4.0 18 36
+ 0.238 2 3 cbr 1000 ------- 1 0.0 4.0 18 36
r 0.238 1 2 cbr 1000 ------- 2 1.0 5.0 18 37
+ 0.238 2 3 cbr 1000 ------- 2 1.0 5.0 18 37
r 0.238 3 4 cbr 1000 ------- 1 0.0 4.0 4 8
+ 0.24 0 2 cbr 1000 ------- 1 0.0 4.0 24 48
- 0.24 0 2 cbr 1000 ------- 1 0.0 4.0 24 48
+ 0.24 1 2 cbr 1000 ------- 2 1.0 5.0 24 49
- 0.24 1 2 cbr 1000 ------- 2 1.0 5.0 24 49
- 0.242 2 3 cbr 1000 ------- 2 1.0 5.0 11 23
r 0.244 2 3 cbr 1000 ------- 1 0.0 4.0 8 16
+ 0.244 3 4 cbr 1000 ------- 1 0.0 4.0 8 16
- 0.244 3 4 cbr 1000 ------- 1 0.0 4.0 8 16
r 0.246 3 5 cbr 1000 ------- 2 1.0 5.0 4 9
r 0.248 0 2 cbr 1000 ------- 1 0.0 4.0 19 38
+ 0.248 2 3 cbr 1000 ------- 1 0.0 4.0 19 38
r 0.248 1 2 cbr 1000 ------- 2 1.0 5.0 19 39
+ 0.248 2 3 cbr 1000 ------- 2 1.0 5.0 19 39
+ 0.25 0 2 cbr 1000 ------- 1 0.0 4.0 25 50
- 0.25 0 2 cbr 1000 ------- 1 0.0 4.0 25 50
+ 0.25 1 2 cbr 1000 ------- 2 1.0 5.0 25 51
- 0.25 1 2 cbr 1000 ------- 2 1.0 5.0 25 51
- 0.25 2 3 cbr 1000 ------- 1 0.0 4.0 12 24
r 0.252 2 3 cbr 1000 ------- 2 1.0 5.0 8 17
+ 0.252 3 5 cbr 1000 ------- 2 1.0 5.0 8 17
- 0.252 3 5 cbr 1000 ------- 2 1.0 5.0 8 17
r 0.254 3 4 cbr 1000 ------- 1 0.0 4.0 5 10
r 0.258 0 2 cbr 1000 ------- 1 0.0 4.0 20 40
+ 0.258 2 3 cbr 1000 ------- 1 0.0 4.0 20 40
r 0.258 1 2 cbr 1000 ------- 2 1.0 5.0 20 41
+ 0.258 2 3 cbr 1000 ------- 2 1.0 5.0 20 41
- 0.258 2 3 cbr 1000 ------- 2 1.0 5.0 12 25
+ 0.26 0 2 cbr 1000 ------- 1 0.0 4.0 26 52
- 0.26 0 2 cbr 1000 ------- 1 0.0 4.0 26 52
+ 0.26 1 2 cbr 1000 ------- 2 1.0 5.0 26 53
- 0.26 1 2 cbr 1000 ------- 2 1.0 5.0 26 53
r 0.26 2 3 cbr 1000 ------- 1 0.0 4.0 9 18
+ 0.26 3 4 cbr 1000 ------- 1 0.0 4.0 9 18
- 0.26 3 4 cbr 1000 ------- 1 0.0 4.0 9 18
r 0.262 3 5 cbr 1000 ------- 2 1.0 5.0 5 11
- 0.266 2 3 cbr 1000 ------- 1 0.0 4.0 13 26
r 0.268 0 2 cbr 1000 ------- 1 0.0 4.0 21 42
+ 0.268 2 3 cbr 1000 ------- 1 0.0 4.0 21 42
r 0.268 1 2 cbr 1000 ------- 2 1.0 5.0 21 43
+ 0.268 2 3 cbr 1000 ------- 2 1.0 5.0 21 43
r 0.268 2 3 cbr 1000 ------- 2 1.0 5.0 9 19
+ 0.268 3 5 cbr 1000 ------- 2 1.0 5.0 9 19
- 0.268 3 5 cbr 1000 ------- 2 1.0 5.0 9 19
r 0.27 3 4 cbr 1000 ------- 1 0.0 4.0 6 12
+ 0.27 0 2 cbr 1000 ------- 1 0.0 4.0 27 54
- 0.27 0 2 cbr 1000 ------- 1 0.0 4.0 27 54
+ 0.27 1 2 cbr 1000 ------- 2 1.0 5.0 27 55
- 0.27 1 2 cbr 1000 ------- 2 1.0 5.0 27 55
- 0.274 2 3 cbr 1000 ------- 2 1.0 5.0 13 27
r 0.276 2 3 cbr 1000 ------- 1 0.0 4.0 10 20
+ 0.276 3 4 cbr 1000 ------- 1 0.0 4.0 10 20
- 0.276 3 4 cbr 1000 ------- 1 0.0 4.0 10 20
r 0.278 0 2 cbr 1000 ------- 1 0.0 4.0 22 44
+ 0.278 2 3 cbr 1000 ------- 1 0.0 4.0 22 44
r 0.278 1 2 cbr 1000 ------- 2 1.0 5.0 22 45
+ 0.278 2 3 cbr 1000 ------- 2 1.0 5.0 22 45
r 0.278 3 5 cbr 1000 ------- 2 1.0 5.0 6 13
+ 0.28 0 2 cbr 1000 ------- 1 0.0 4.0 28 56
- 0.28 0 2 cbr 1000 ------- 1 0.0 4.0 28 56
+ 0.28 1 2 cbr 1000 ------- 2 1.0 5.0 28 57
- 0.28 1 2 cbr 1000 ------- 2 1.0 5.0 28 57
- 0.282 2 3 cbr 1000 ------- 1 0.0 4.0 14 28
r 0.284 2 3 cbr 1000 ------- 2 1.0 5.0 10 21
+ 0.284 3 5 cbr 1000 ------- 2 1.0 5.0 10 21
- 0.284 3 5 cbr 1000 ------- 2 1.0 5.0 10 21
r 0.286 3 4 cbr 1000 ------- 1 0.0 4.0 7 14
r 0.288 0 2 cbr 1000 ------- 1 0.0 4.0 23 46
+ 0.288 2 3 cbr 1000 ------- 1 0.0 4.0 23 46
r 0.288 1 2 cbr 1000 ------- 2 1.0 5.0 23 47
+ 0.288 2 3 cbr 1000 ------- 2 1.0 5.0 23 47
+ 0.29 0 2 cbr 1000 ------- 1 0.0 4.0 29 58
- 0.29 0 2 cbr 1000 ------- 1 0.0 4.0 29 58
+ 0.29 1 2 cbr 1000 ------- 2 1.0 5.0 29 59
- 0.29 1 2 cbr 1000 ------- 2 1.0 5.0 29 59
- 0.29 2 3 cbr 1000 ------- 2 1.0 5.0 14 29
r 0.292 2 3 cbr 1000 ------- 1 0.0 4.0 11 22
+ 0.292 3 4 cbr 1000 ------- 1 0.0 4.0 11 22
- 0.292 3 4 cbr 1000 ------- 1 0.0 4.0 11 22
r 0.294 3 5 cbr 1000 ------- 2 1.0 5.0 7 15
r 0.298 0 2 cbr 1000 ------- 1 0.0 4.0 24 48
+ 0.298 2 3 cbr 1000 ------- 1 0.0 4.0 24 48
r 0.298 1 2 cbr 1000 ------- 2 1.0 5.0 24 49
+ 0.298 2 3 cbr 1000 ------- 2 1.0 5.0 24 49
- 0.298 2 3 cbr 1000 ------- 1 0.0 4.0 15 30
+ 0.3 0 2 cbr 1000 ------- 1 0.0 4.0 30 60
- 0.3 0 2 cbr 1000 ------- 1 0.0 4.0 30 60
+ 0.3 1 2 cbr 1000 ------- 2 1.0 5.0 30 61
- 0.3 1 2 cbr 1000 ------- 2 1.0 5.0 30 61
r 0.3 2 3 cbr 1000 ------- 2 1.0 5.0 11 23
+ 0.3 3 5 cbr 1000 ------- 2 1.0 5.0 11 23
- 0.3 3 5 cbr 1000 ------- 2 1.0 5.0 11 23
r 0.302 3 4 cbr 1000 ------- 1 0.0 4.0 8 16
- 0.306 2 3 cbr 1000 ------- 2 1.0 5.0 15 31
r 0.308 0 2 cbr 1000 ------- 1 0.0 4.0 25 50
+ 0.308 2 3 cbr 1000 ------- 1 0.0 4.0 25 50
r 0.308 1 2 cbr 1000 ------- 2 1.0 5.0 25 51
+ 0.308 2 3 cbr 1000 ------- 2 1.0 5.0 25 51
r 0.308 2 3 cbr 1000 ------- 1 0.0 4.0 12 24
+ 0.308 3 4 cbr 1000 ------- 1 0.0 4.0 12 24
- 0.308 3 4 cbr 1000 ------- 1 0.0 4.0 12 24
r 0.31 3 5 cbr 1000 ------- 2 1.0 5.0 8 17
+ 0.31 0 2 cbr 1000 ------- 1 0.0 4.0 31 62
- 0.31 0 2 cbr 1000 ------- 1 0.0 4.0 31 62
+ 0.31 1 2 cbr 1000 ------- 2 1.0 5.0 31 63
- 0.31 1 2 cbr 1000 ------- 2 1.0 5.0 31 63
- 0.314 2 3 cbr 1000 ------- 1 0.0 4.0 16 32
r 0.316 2 3 cbr 1000 ------- 2 1.0 5.0 12 25
+ 0.316 3 5 cbr 1000 ------- 2 1.0 5.0 12 25
- 0.316 3 5 cbr 1000 ------- 2 1.0 5.0 12 25
r 0.318 0 2 cbr 1000 ------- 1 0.0 4.0 26 52
+ 0.318 2 3 cbr 1000 ------- 1 0.0 4.0 26 52
r 0.318 1 2 cbr 1000 ------- 2 1.0 5.0 26 53
+ 0.318 2 3 cbr 1000 ------- 2 1.0 5.0 26 53
r 0.318 3 4 cbr 1000 ------- 1 0.0 4.0 9 18
+ 0.32 0 2 cbr 1000 ------- 1 0.0 4.0 32 64
- 0.32 0 2 cbr 1000 ------- 1 0.0 4.0 32 64
+ 0.32 1 2 cbr 1000 ------- 2 1.0 5.0 32 65
- 0.32 1 2 cbr 1000 ------- 2 1.0 5.0 32 65
- 0.322 2 3 cbr 1000 ------- 2 1.0 5.0 16 33
r 0.324 2 3 cbr 1000 ------- 1 0.0 4.0 13 26
+ 0.324 3 4 cbr 1000 ------- 1 0.0 4.0 13 26
- 0.324 3 4 cbr 1000 ------- 1 0.0 4.0 13 26
r 0.326 3 5 cbr 1000 ------- 2 1.0 5.0 9 19
r 0.328 0 2 cbr 1000 ------- 1 0.0 4.0 27 54
+ 0.328 2 3 cbr 1000 ------- 1 0.0 4.0 27 54
r 0.328 1 2 cbr 1000 ------- 2 1.0 5.0 27 55
+ 0.328 2 3 cbr 1000 ------- 2 1.0 5.0 27 55
+ 0.33 0 2 cbr 1000 ------- 1 0.0 4.0 33 66
- 0.33 0 2 cbr 1000 ------- 1 0.0 4.0 33 66
+ 0.33 1 2 cbr 1000 ------- 2 1.0 5.0 33 67
- 0.33 1 2 cbr 1000 ------- 2 1.0 5.0 33 67
- 0.33 2 3 cbr 1000 ------- 1 0.0 4.0 17 34
r 0.332 2 3 cbr 1000 ------- 2 1.0 5.0 13 27
+ 0.332 3 5 cbr 1000 ------- 2 1.0 5.0 13 27
- 0.332 3 5 cbr 1000 ------- 2 1.0 5.0 13 27
r 0.334 3 4 cbr 1000 ------- 1 0.0 4.0 10 20
r 0.338 0 2 cbr 1000 ------- 1 0.0 4.0 28 56
+ 0.338 2 3 cbr 1000 ------- 1 0.0 4.0 28 56
r 0.338 1 2 cbr 1000 ------- 2 1.0 5.0 28 57
+ 0.338 2 3 cbr 1000 ------- 2 1.0 5.0 28 57
- 0.338 2 3 cbr 1000 ------- 2 1.0 5.0 17 35
+ 0.34 0 2 cbr 1000 ------- 1 0.0 4.0 34 68
- 0.34 0 2 cbr 1000 ------- 1 0.0 4.0 34 68
+ 0.34 1 2 cbr 1000 ------- 2 1.0 5.0 34 69
- 0.34 1 2 cbr 1000 ------- 2 1.0 5.0 34 69
r 0.34 2 3 cbr 1000 ------- 1 0.0 4.0 14 28
+ 0.34 3 4 cbr 1000 ------- 1 0.0 4.0 14 28
- 0.34 3 4 cbr 1000 ------- 1 0.0 4.0 14 28
r 0.342 3 5 cbr 1000 ------- 2 1.0 5.0 10 21
- 0.346 2 3 cbr 1000 ------- 1 0.0 4.0 18 36
r 0.348 0 2 cbr 1000 ------- 1 0.0 4.0 29 58
+ 0.348 2 3 cbr 1000 ------- 1 0.0 4.0 29 58
r 0.348 1 2 cbr 1000 ------- 2 1.0 5.0 29 59
+ 0.348 2 3 cbr 1000 ------- 2 1.0 5.0 29 59
r 0.348 2 3 cbr 1000 ------- 2 1.0 5.0 14 29
+ 0.348 3 5 cbr 1000 ------- 2 1.0 5.0 14 29
- 0.348 3 5 cbr 1000 ------- 2 1.0 5.0 14 29
r 0.35 3 4 cbr 1000 ------- 1 0.0 4.0 11 22
+ 0.35 0 2 cbr 1000 ------- 1 0.0 4.0 35 70
- 0.35 0 2 cbr 1000 ------- 1 0.0 4.0 35 70
+ 0.35 1 2 cbr 1000 ------- 2 1.0 5.0 35 71
- 0.35 1 2 cbr 1000 ------- 2 1.0 5.0 35 71
- 0.354 2 3 cbr 1000 ------- 2 1.0 5.0 18 37
r 0.356 2 3 cbr 1000 ------- 1 0.0 4.0 15 30
+ 0.356 3 4 cbr 1000 ------- 1 0.0 4.0 15 30
- 0.356 3 4 cbr 1000 ------- 1 0.0 4.0 15 30
r 0.358 0 2 cbr 1000 ------- 1 0.0 4.0 30 60
+ 0.358 2 3 cbr 1000 ------- 1 0.0 4.0 30 60
r 0.358 1 2 cbr 1000 ------- 2 1.0 5.0 30 61
+ 0.358 2 3 cbr 1000 ------- 2 1.0 5.0 30 61
r 0.358 3 5 cbr 1000 ------- 2 1.0 5.0 11 23
+ 0.36 0 2 cbr 1000 ------- 1 0.0 4.0 36 72
- 0.36 0 2 cbr 1000 ------- 1 0.0 4.0 36 72
+ 0.36 1 2 cbr 1000 ------- 2 1.0 5.0 36 73
- 0.36 1 2 cbr 1000 ------- 2 1.0 5.0 36 73
- 0.362 2 3 cbr 1000 ------- 1 0.0 4.0 19 38
r 0.364 2 3 cbr 1000 ------- 2 1.0 5.0 15 31
+ 0.364 3 5 cbr 1000 ------- 2 1.0 5.0 15 31
- 0.364 3 5 cbr 1000 ------- 2 1.0 5.0 15 31
r 0.366 3 4 cbr 1000 ------- 1 0.0 4.0 12 24
r 0.368 0 2 cbr 1000 ------- 1 0.0 4.0 31 62
+ 0.368 2 3 cbr 1000 ------- 1 0.0 4.0 31 62
r 0.368 1 2 cbr 1000 ------- 2 1.0 5.0 31 63
+ 0.368 2 3 cbr 1000 ------- 2 1.0 5.0 31 63
+ 0.37 0 2 cbr 1000 ------- 1 0.0 4.0 37 74
- 0.37 0 2 cbr 1000 ------- 1 0.0 4.0 37 74
+ 0.37 1 2 cbr 1000 ------- 2 1.0 5.0 37 75
- 0.37 1 2 cbr 1000 ------- 2 1.0 5.0 37 75
- 0.37 2 3 cbr 1000 ------- 2 1.0 5.0 19 39
r 0.372 2 3 cbr 1000 ------- 1 0.0 4.0 16 32
+ 0.372 3 4 cbr 1000 ------- 1 0.0 4.0 16 32
- 0.372 3 4 cbr 1000 ------- 1 0.0 4.0 16 32
r 0.374 3 5 cbr 1000 ------- 2 1.0 5.0 12 25
r 0.378 0 2 cbr 1000 ------- 1 0.0 4.0 32 64
+ 0.378 2 3 cbr 1000 ------- 1 0.0 4.0 32 64
r 0.378 1 2 cbr 1000 ------- 2 1.0 5.0 32 65
+ 0.378 2 3 cbr 1000 ------- 2 1.0 5.0 32 65
- 0.378 2 3 cbr 1000 ------- 1 0.0 4.0 20 40
+ 0.38 0 2 cbr 1000 ------- 1 0.0 4.0 38 76
- 0.38 0 2 cbr 1000 ------- 1 0.0 4.0 38 76
+ 0.38 1 2 cbr 1000 ------- 2 1.0 5.0 38 77
- 0.38 1 2 cbr 1000 ------- 2 1.0 5.0 38 77
r 0.38 2 3 cbr 1000 ------- 2 1.0 5.0 16 33
+ 0.38 3 5 cbr 1000 ------- 2 1.0 5.0 16 33
- 0.38 3 5 cbr 1000 ------- 2 1.0 5.0 16 33
r 0.382 3 4 cbr 1000 ------- 1 0.0 4.0 13 26
- 0.386 2 3 cbr 1000 ------- 2 1.0 5.0 20 41
r 0.388 0 2 cbr 1000 ------- 1 0.0 4.0 33 66
+ 0.388 2 3 cbr 1000 ------- 1 0.0 4.0 33 66
r 0.388 1 2 cbr 1000 ------- 2 1.0 5.0 33 67
+ 0.388 2 3 cbr 1000 ------- 2 1.0 5.0 33 67
r 0.388 2 3 cbr 1000 ------- 1 0.0 4.0 17 34
+ 0.388 3 4 cbr 1000 ------- 1 0.0 4.0 17 34
- 0.388 3 4 cbr 1000 ------- 1 0.0 4.0 17 34
r 0.39 3 5 cbr 1000 ------- 2 1.0 5.0 13 27
+ 0.39 0 2 cbr 1000 ------- 1 0.0 4.0 39 78
- 0.39 0 2 cbr 1000 ------- 1 0.0 4.0 39 78
+ 0.39 1 2 cbr 1000 ------- 2 1.0 5.0 39 79
- 0.39 1 2 cbr 1000 ------- 2 1.0 5.0 39 79
- 0.394 2 3 cbr 1000 ------- 1 0.0 4.0 21 42
r 0.396 2 3 cbr 1000 ------- 2 1.0 5.0 17 35
+ 0.396 3 5 cbr 1000 ------- 2 1.0 5.0 17 35
- 0.396 3 5 cbr 1000 ------- 2 1.0 5.0 17 35
r 0.398 0 2 cbr 1000 ------- 1 0.0 4.0 34 68
+ 0.398 2 3 cbr 1000 ------- 1 0.0 4.0 34 68
r 0.398 1 2 cbr 1000 ------- 2 1.0 5.0 34 69
+ 0.398 2 3 cbr 1000 ------- 2 1.0 5.0 34 69
r 0.398 3 4 cbr 1000 ------- 1 0.0 4.0 14 28
+ 0.4 0 2 cbr 1000 ------- 1 0.0 4.0 40 80
- 0.4 0 2 cbr 1000 ------- 1 0.0 4.0 40 80
+ 0.4 1 2 cbr 1000 ------- 2 1.0 5.0 40 81
- 0.4 1 2 cbr 1000 ------- 2 1.0 5.0 40 81
- 0.402 2 3 cbr 1000 ------- 2 1.0 5.0 21 43
r 0.404 2 3 cbr 1000 ------- 1 0.0 4.0 18 36
+ 0.404 3 4 cbr 1000 ------- 1 0.0 4.0 18 36
- 0.404 3 4 cbr 1000 ------- 1 0.0 4.0 18 36
r 0.406 3 5 cbr 1000 ------- 2 1.0 5.0 14 29
r 0.408 0 2 cbr 1000 ------- 1 0.0 4.0 35 70
+ 0.408 2 3 cbr 1000 ------- 1 0.0 4.0 35 70
r 0.408 1 2 cbr 1000 ------- 2 1.0 5.0 35 71
+ 0.408 2 3 cbr 1000 ------- 2 1.0 5.0 35 71
+ 0.41 0 2 cbr 1000 ------- 1 0.0 4.0 41 82
- 0.41 0 2 cbr 1000 ------- 1 0.0 4.0 41 82
+ 0.41 1 2 cbr 1000 ------- 2 1.0 5.0 41 83
- 0.41 1 2 cbr 1000 ------- 2 1.0 5.0 41 83
- 0.41 2 3 cbr 1000 ------- 1 0.0 4.0 22 44
r 0.412 2 3 cbr 1000 ------- 2 1.0 5.0 18 37
+ 0.412 3 5 cbr 1000 ------- 2 1.0 5.0 18 37
- 0.412 3 5 cbr 1000 ------- 2 1.0 5.0 18 37
r 0.414 3 4 cbr 1000 ------- 1 0.0 4.0 15 30
r 0.418 0 2 cbr 1000 ------- 1 0.0 4.0 36 72
+ 0.418 2 3 cbr 1000 ------- 1 0.0 4.0 36 72
r 0.418 1 2 cbr 1000 ------- 2 1.0 5.0 36 73
+ 0.418 2 3 cbr 1000 ------- 2 1.0 5.0 36 73
- 0.418 2 3 cbr 1000 ------- 2 1.0 5.0 22 45
+ 0.42 0 2 cbr 1000 ------- 1 0.0 4.0 42 84
- 0.42 0 2 cbr 1000 ------- 1 0.0 4.0 42 84
+ 0.42 1 2 cbr 1000 ------- 2 1.0 5.0 42 85
- 0.42 1 2 cbr 1000 ------- 2 1.0 5.0 42 85
r 0.42 2 3 cbr 1000 ------- 1 0.0 4.0 19 38
+ 0.42 3 4 cbr 1000 ------- 1 0.0 4.0 19 38
- 0.42 3 4 cbr 1000 ------- 1 0.0 4.0 19 38
r 0.422 3 5 cbr 1000 ------- 2 1.0 5.0 15 31
- 0.426 2 3 cbr 1000 ------- 1 0.0 4.0 23 46
r 0.428 0 2 cbr 1000 ------- 1 0.0 4.0 37 74
+ 0.428 2 3 cbr 1000 ------- 1 0.0 4.0 37 74
r 0.428 1 2 cbr 1000 ------- 2 1.0 5.0 37 75
+ 0.428 2 3 cbr 1000 ------- 2 1.0 5.0 37 75
r 0.428 2 3 cbr 1000 ------- 2 1.0 5.0 19 39
+ 0.428 3 5 cbr 1000 ------- 2 1.0 5.0 19 39
- 0.428 3 5 cbr 1000 ------- 2 1.0 5.0 19 39
r 0.43 3 4 cbr 1000 ------- 1 0.0 4.0 16 32
+ 0.43 0 2 cbr 1000 ------- 1 0.0 4.0 43 86
- 0.43 0 2 cbr 1000 ------- 1 0.0 4.0 43 86
+ 0.43 1 2 cbr 1000 ------- 2 1.0 5.0 43 87
- 0.43 1 2 cbr 1000 ------- 2 1.0 5.0 43 87
- 0.434 2 3 cbr 1000 ------- 2 1.0 5.0 23 47
r 0.436 2 3 cbr 1000 ------- 1 0.0 4.0 20 40
+ 0.436 3 4 cbr 1000 ------- 1 0.0 4.0 20 40
- 0.436 3 4 cbr 1000 ------- 1 0.0 4.0 20 40
r 0.438 0 2 cbr 1000 ------- 1 0.0 4.0 38 76
+ 0.438 2 3 cbr 1000 ------- 1 0.0 4.0 38 76
r 0.438 1 2 cbr 1000 ------- 2 1.0 5.0 38 77
+ 0.438 2 3 cbr 1000 ------- 2 1.0 5.0 38 77
r 0.438 3 5 cbr 1000 ------- 2 1.0 5.0 16 33
+ 0.44 0 2 cbr 1000 ------- 1 0.0 4.0 44 88
- 0.44 0 2 cbr 1000 ------- 1 0.0 4.0 44 88
+ 0.44 1 2 cbr 1000 ------- 2 1.0 5.0 44 89
- 0.44 1 2 cbr 1000 ------- 2 1.0 5.0 44 89
- 0.442 2 3 cbr 1000 ------- 1 0.0 4.0 24 48
r 0.444 2 3 cbr 1000 ------- 2 1.0 5.0 20 41
+ 0.444 3 5 cbr 1000 ------- 2 1.0 5.0 20 41
- 0.444 3 5 cbr 1000 ------- 2 1.0 5.0 20 41
r 0.446 3 4 cbr 1000 ------- 1 0.0 4.0 17 34
r 0.448 0 2 cbr 1000 ------- 1 0.0 4.0 39 78
+ 0.448 2 3 cbr 1000 ------- 1 0.0 4.0 39 78
r 0.448 1 2 cbr 1000 ------- 2 1.0 5.0 39 79
+ 0.448 2 3 cbr 1000 ------- 2 1.0 5.0 39 79
+ 0.45 0 2 cbr 1000 ------- 1 0.0 4.0 45 90
- 0.45 0 2 cbr 1000 ------- 1 0.0 4.0 45 90
+ 0.45 1 2 cbr 1000 ------- 2 1.0 5.0 45 91
- 0.45 1 2 cbr 1000 ------- 2 1.0 5.0 45 91
- 0.45 2 3 cbr 1000 ------- 2 1.0 5.0 24 49
r 0.452 2 3 cbr 1000 ------- 1 0.0 4.0 21 42
+ 0.452 3 4 cbr 1000 ------- 1 0.0 4.0 21 42
- 0.452 3 4 cbr 1000 ------- 1 0.0 4.0 21 42
r 0.454 3 5 cbr 1000 ------- 2 1.0 5.0 17 35
r 0.458 0 2 cbr 1000 ------- 1 0.0 4.0 40 80
+ 0.458 2 3 cbr 1000 ------- 1 0.0 4.0 40 80
r 0.458 1 2 cbr 1000 ------- 2 1.0 5.0 40 81
+ 0.458 2 3 cbr 1000 ------- 2 1.0 5.0 40 81
- 0.458 2 3 cbr 1000 ------- 1 0.0 4.0 25 50
+ 0.46 0 2 cbr 1000 ------- 1 0.0 4.0 46 92
- 0.46 0 2 cbr 1000 ------- 1 0.0 4.0 46 92
+ 0.46 1 2 cbr 1000 ------- 2 1.0 5.0 46 93
- 0.46 1 2 cbr 1000 ------- 2 1.0 5.0 46 93
r 0.46 2 3 cbr 1000 ------- 2 1.0 5.0 21 43
+ 0.46 3 5 cbr 1000 ------- 2 1.0 5.0 21 43
- 0.46 3 5 cbr 1000 ------- 2 1.0 5.0 21 43
r 0.462 3 4 cbr 1000 ------- 1 0.0 4.0 18 36
- 0.466 2 3 cbr 1000 ------- 2 1.0 5.0 25 51
r 0.468 0 2 cbr 1000 ------- 1 0.0 4.0 41 82
+ 0.468 2 3 cbr 1000 ------- 1 0.0 4.0 41 82
r 0.468 1 2 cbr 1000 ------- 2 1.0 5.0 41 83
+ 0.468 2 3 cbr 1000 ------- 2 1.0 5.0 41 83
r 0.468 2 3 cbr 1000 ------- 1 0.0 4.0 22 44
+ 0.468 3 4 cbr 1000 ------- 1 0.0 4.0 22 44
- 0.468 3 4 cbr 1000 ------- 1 0.0 4.0 22 44
r 0.47 3 5 cbr 1000 ------- 2 1.0 5.0 18 37
+ 0.47 0 2 cbr 1000 ------- 1 0.0 4.0 47 94
- 0.47 0 2 cbr 1000 ------- 1 0.0 4.0 47 94
+ 0.47 1 2 cbr 1000 ------- 2 1.0 5.0 47 95
- 0.47 1 2 cbr 1000 ------- 2 1.0 5.0 47 95
- 0.474 2 3 cbr 1000 ------- 1 0.0 4.0 26 52
r 0.476 2 3 cbr 1000 ------- 2 1.0 5.0 22 45
+ 0.476 3 5 cbr 1000 ------- 2 1.0 5.0 22 45
- 0.476 3 5 cbr 1000 ------- 2 1.0 5.0 22 45
r 0.478 0 2 cbr 1000 ------- 1 0.0 4.0 42 84
+ 0.478 2 3 cbr 1000 ------- 1 0.0 4.0 42 84
r 0.478 1 2 cbr 1000 ------- 2 1.0 5.0 42 85
+ 0.478 2 3 cbr 1000 ------- 2 1.0 5.0 42 85
r 0.478 3 4 cbr 1000 ------- 1 0.0 4.0 19 38
+ 0.48 0 2 cbr 1000 ------- 1 0.0 4.0 48 96
- 0.48 0 2 cbr 1000 ------- 1 0.0 4.0 48 96
+ 0.48 1 2 cbr 1000 ------- 2 1.0 5.0 48 97
- 0.48 1 2 cbr 1000 ------- 2 1.0 5.0 48 97
- 0.482 2 3 cbr 1000 ------- 2 1.0 5.0 26 53
r 0.484 2 3 cbr 1000 ------- 1 0.0 4.0 23 46
+ 0.484 3 4 cbr 1000 ------- 1 0.0 4.0 23 46
- 0.484 3 4 cbr 1000 ------- 1 0.0 4.0 23 46
r 0.486 3 5 cbr 1000 ------- 2 1.0 5.0 19 39
r 0.488 0 2 cbr 1000 ------- 1 0.0 4.0 43 86
+ 0.488 2 3 cbr 1000 ------- 1 0.0 4.0 43 86
r 0.488 1 2 cbr 1000 ------- 2 1.0 5.0 43 87
+ 0.488 2 3 cbr 1000 ------- 2 1.0 5.0 43 87
+ 0.49 0 2 cbr 1000 ------- 1 0.0 4.0 49 98
- 0.49 0 2 cbr 1000 ------- 1 0.0 4.0 49 98
+ 0.49 1 2 cbr 1000 ------- 2 1.0 5.0 49 99
- 0.49 1 2 cbr 1000 ------- 2 1.0 5.0 49 99
- 0.49 2 3 cbr 1000 ------- 1 0.0 4.0 27 54
r 0.492 2 3 cbr 1000 ------- 2 1.0 5.0 23 47
+ 0.492 3 5 cbr 1000 ------- 2 1.0 5.0 23 47
- 0.492 3 5 cbr 1000 ------- 2 1.0 5.0 23 47
r 0.494 3 4 cbr 1000 ------- 1 0.0 4.0 20 40
r 0.498 0 2 cbr 1000 ------- 1 0.0 4.0 44 88
+ 0.498 2 3 cbr 1000 ------- 1 0.0 4.0 44 88
r 0.498 1 2 cbr 1000 ------- 2 1.0 5.0 44 89
+ 0.498 2 3 cbr 1000 ------- 2 1.0 5.0 44 89
- 0.498 2 3 cbr 1000 ------- 2 1.0 5.0 27 55
+ 0.5 0 2 cbr 1000 ------- 1 0.0 4.0 50 100
- 0.5 0 2 cbr 1000 ------- 1 0.0 4.0 50 100
+ 0.5 1 2 cbr 1000 ------- 2 1.0 5.0 50 101
- 0.5 1 2 cbr 1000 ------- 2 1.0 5.0 50 101
r 0.5 2 3 cbr 1000 ------- 1 0.0 4.0 24 48
+ 0.5 3 4 cbr 1000 ------- 1 0.0 4.0 24 48
- 0.5 3 4 cbr 1000 ------- 1 0.0 4.0 24 48
r 0.502 3 5 cbr 1000 ------- 2 1.0 5.0 20 41
- 0.506 2 3 cbr 1000 ------- 1 0.0 4.0 28 56
r 0.508 0 2 cbr 1000 ------- 1 0.0 4.0 45 90
+ 0.508 2 3 cbr 1000 ------- 1 0.0 4.0 45 90
r 0.508 1 2 cbr 1000 ------- 2 1.0 5.0 45 91
+ 0.508 2 3 cbr 1000 ------- 2 1.0 5.0 45 91
r 0.508 2 3 cbr 1000 ------- 2 1.0 5.0 24 49
+ 0.508 3 5 cbr 1000 ------- 2 1.0 5.0 24 49
- 0.508 3 5 cbr 1000 ------- 2 1.0 5.0 24 49
+ 0.51 0 2 cbr 1000 ------- 1 0.0 4.0 51 102
- 0.51 0 2 cbr 1000 ------- 1 0.0 4.0 51 102
+ 0.51 1 2 cbr 1000 ------- 2 1.0 5.0 51 103
- 0.51 1 2 cbr 1000 ------- 2 1.0 5.0 51 103
r 0.51 3 4 cbr 1000 ------- 1 0.0 4.0 21 42
- 0.514 2 3 cbr 1000 ------- 2 1.0 5.0 28 57
r 0.516 2 3 cbr 1000 ------- 1 0.0 4.0 25 50
+ 0.516 3 4 cbr 1000 ------- 1 0.0 4.0 25 50
- 0.516 3 4 cbr 1000 ------- 1 0.0 4.0 25 50
r 0.518 0 2 cbr 1000 ------- 1 0.0 4.0 46 92
+ 0.518 2 3 cbr 1000 ------- 1 0.0 4.0 46 92
r 0.518 1 2 cbr 1000 ------- 2 1.0 5.0 46 93
+ 0.518 2 3 cbr 1000 ------- 2 1.0 5.0 46 93
r 0.518 3 5 cbr 1000 ------- 2 1.0 5.0 21 43
+ 0.52 0 2 cbr 1000 ------- 1 0.0 4.0 52 104
- 0.52 0 2 cbr 1000 ------- 1 0.0 4.0 52 104
+ 0.52 1 2 cbr 1000 ------- 2 1.0 5.0 52 105
- 0.52 1 2 cbr 1000 ------- 2 1.0 5.0 52 105
- 0.522 2 3 cbr 1000 ------- 1 0.0 4.0 29 58
r 0.524 2 3 cbr 1000 ------- 2 1.0 5.0 25 51
+ 0.524 3 5 cbr 1000 ------- 2 1.0 5.0 25 51
- 0.524 3 5 cbr 1000 ------- 2 1.0 5.0 25 51
r 0.526 3 4 cbr 1000 ------- 1 0.0 4.0 22 44
r 0.528 0 2 cbr 1000 ------- 1 0.0 4.0 47 94
+ 0.528 2 3 cbr 1000 ------- 1 0.0 4.0 47 94
r 0.528 1 2 cbr 1000 ------- 2 1.0 5.0 47 95
+ 0.528 2 3 cbr 1000 ------- 2 1.0 5.0 47 95
+ 0.53 0 2 cbr 1000 ------- 1 0.0 4.0 53 106
- 0.53 0 2 cbr 1000 ------- 1 0.0 4.0 53 106
+ 0.53 1 2 cbr 1000 ------- 2 1.0 5.0 53 107
- 0.53 1 2 cbr 1000 ------- 2 1.0 5.0 53 107
- 0.53 2 3 cbr 1000 ------- 2 1.0 5.0 29 59
r 0.532 2 3 cbr 1000 ------- 1 0.0 4.0 26 52
+ 0.532 3 4 cbr 1000 ------- 1 0.0 4.0 26 52
- 0.532 3 4 cbr 1000 ------- 1 0.0 4.0 26 52
r 0.534 3 5 cbr 1000 ------- 2 1.0 5.0 22 45
r 0.538 0 2 cbr 1000 ------- 1 0.0 4.0 48 96
+ 0.538 2 3 cbr 1000 ------- 1 0.0 4.0 48 96
r 0.538 1 2 cbr 1000 ------- 2 1.0 5.0 48 97
+ 0.538 2 3 cbr 1000 ------- 2 1.0 5.0 48 97
- 0.538 2 3 cbr 1000 ------- 1 0.0 4.0 30 60
+ 0.54 0 2 cbr 1000 ------- 1 0.0 4.0 54 108