V -t * -v 1.0a5 -a 0
A -t * -n 1 -p 0 -o 0xffffffff -c 31 -a 1
A -t * -h 1 -m 2147483647 -s 0
c -t * -i 1 -n Blue
c -t * -i 2 -n Red
n -t * -a 4 -s 4 -S UP -v circle -c black -i black
n -t * -a 0 -s 0 -S UP -v circle -c black -i black
n -t * -a 5 -s 5 -S UP -v circle -c black -i black
n -t * -a 1 -s 1 -S UP -v circle -c black -i black
n -t * -a 2 -s 2 -S UP -v circle -c black -i black
n -t * -a 3 -s 3 -S UP -v circle -c black -i black
l -t * -s 0 -d 2 -S UP -r 1000000 -D 0.050000000000000003 -c black -o right-down
l -t * -s 1 -d 2 -S UP -r 1000000 -D 0.050000000000000003 -c black -o right-up
l -t * -s 2 -d 3 -S UP -r 1000000 -D 0.050000000000000003 -c black -o right
l -t * -s 3 -d 4 -S UP -r 1000000 -D 0.050000000000000003 -c black -o right-up
l -t * -s 3 -d 5 -S UP -r 1000000 -D 0.050000000000000003 -c black -o right-down
+ -t 0 -s 0 -d 2 -p cbr -e 1000 -c 1 -i 0 -a 1 -x {0.0 4.0 0 ------- null}
- -t 0 -s 0 -d 2 -p cbr -e 1000 -c 1 -i 0 -a 1 -x {0.0 4.0 0 ------- null}
h -t 0 -s 0 -d 2 -p cbr -e 1000 -c 1 -i 0 -a 1 -x {0.0 4.0 -1 ------- null}
+ -t 0 -s 1 -d 2 -p tcp -e 40 -c 2 -i 1 -a 2 -x {1.0 5.0 0 ------- null}
- -t 0 -s 1 -d 2 -p tcp -e 40 -c 2 -i 1 -a 2 -x {1.0 5.0 0 ------- null}
h -t 0 -s 1 -d 2 -p tcp -e 40 -c 2 -i 1 -a 2 -x {1.0 5.0 -1 ------- null}
+ -t 0.016 -s 0 -d 2 -p cbr -e 1000 -c 1 -i 2 -a 1 -x {0.0 4.0 1 ------- null}
- -t 0.016 -s 0 -d 2 -p cbr -e 1000 -c 1 -i 2 -a 1 -x {0.0 4.0 1 ------- null}
h -t 0.016 -s 0 -d 2 -p cbr -e 1000 -c 1 -i 2 -a 1 -x {0.0 4.0 -1 ------- null}
+ -t 0.032 -s 0 -d 2 -p cbr -e 1000 -c 1 -i 3 -a 1 -x {0.0 4.0 2 ------- null}
- -t 0.032 -s 0 -d 2 -p cbr -e 1000 -c 1 -i 3 -a 1 -x {0.0 4.0 2 ------- null}
h -t 0.032 -s 0 -d 2 -p cbr -e 1000 -c 1 -i 3 -a 1 -x {0.0 4.0 -1 ------- null}
+ -t 0.048 -s 0 -d 2 -p cbr -e 1000 -c 1 -i 4 -a 1 -x {0.0 4.0 3 ------- null}
- -t 0.048 -s 0 -d 2 -p cbr -e 1000 -c 1 -i 4 -a 1 -x {0.0 4.0 3 ------- null}
h -t 0.048 -s 0 -d 2 -p cbr -e 1000 -c 1 -i 4 -a 1 -x {0.0 4.0 -1 ------- null}
r -t 0.05032 -s 1 -d 2 -p tcp -e 40 -c 2 -i 1 -a 2 -x {1.0 5.0 0 ------- null}
+ -t 0.05032 -s 2 -d 3 -p tcp -e 40 -c 2 -i 1 -a 2 -x {1.0 5.0 0 ------- null}
- -t 0.05032 -s 2 -d 3 -p tcp -e 40 -c 2 -i 1 -a 2 -x {1.0 5.0 0 ------- null}
h -t 0.05032 -s 2 -d 3 -p tcp -e 40 -c 2 -i 1 -a 2 -x {1.0 5.0 -1 ------- null}
r -t 0.058 -s 0 -d 2 -p cbr -e 1000 -c 1 -i 0 -a 1 -x {0.0 4.0 0 ------- null}
+ -t 0.058 -s 2 -d 3 -p cbr -e 1000 -c 1 -i 0 -a 1 -x {0.0 4.0 0 ------- null}
- -t 0.058 -s 2 -d 3 -p cbr -e 1000 -c 1 -i 0 -a 1 -x {0.0 4.0 0 ------- null}
h -t 0.058 -s 2 -d 3 -p cbr -e 1000 -c 1 -i 0 -a 1 -x {0.0 4.0 -1 ------- null}
+ -t 0.064 -s 0 -d 2 -p cbr -e 1000 -c 1 -i 5 -a 1 -x {0.0 4.0 4 ------- null}
- -t 0.064 -s 0 -d 2 -p cbr -e 1000 -c 1 -i 5 -a 1 -x {0.0 4.0 4 ------- null}
h -t 0.064 -s 0 -d 2 -p cbr -e 1000 -c 1 -i 5 -a 1 -x {0.0 4.0 -1 ------- null}
r -t 0.074 -s 0 -d 2 -p cbr -e 1000 -c 1 -i 2 -a 1 -x {0.0 4.0 1 ------- null}
+ -t 0.074 -s 2 -d 3 -p cbr -e 1000 -c 1 -i 2 -a 1 -x {0.0 4.0 1 ------- null}
- -t 0.074 -s 2 -d 3 -p cbr -e 1000 -c 1 -i 2 -a 1 -x {0.0 4.0 1 ------- null}
h -t 0.074 -s 2 -d 3 -p cbr -e 1000 -c 1 -i 2 -a 1 -x {0.0 4.0 -1 ------- null}
+ -t 0.08 -s 0 -d 2 -p cbr -e 1000 -c 1 -i 6 -a 1 -x {0.0 4.0 5 ------- null}
- -t 0.08 -s 0 -d 2 -p cbr -e 1000 -c 1 -i 6 -a 1 -x {0.0 4.0 5 ------- null}
h -t 0.08 -s 0 -d 2 -p cbr -e 1000 -c 1 -i 6 -a 1 -x {0.0 4.0 -1 ------- null}
r -t 0.09 -s 0 -d 2 -p cbr -e 1000 -c 1 -i 3 -a 1 -x {0.0 4.0 2 ------- null}
+ -t 0.09 -s 2 -d 3 -p cbr -e 1000 -c 1 -i 3 -a 1 -x {0.0 4.0 2 ------- null}
- -t 0.09 -s 2 -d 3 -p cbr -e 1000 -c 1 -i 3 -a 1 -x {0.0 4.0 2 ------- null}
h -t 0.09 -s 2 -d 3 -p cbr -e 1000 -c 1 -i 3 -a 1 -x {0.0 4.0 -1 ------- null}
+ -t 0.096 -s 0 -d 2 -p cbr -e 1000 -c 1 -i 7 -a 1 -x {0.0 4.0 6 ------- null}
- -t 0.096 -s 0 -d 2 -p cbr -e 1000 -c 1 -i 7 -a 1 -x {0.0 4.0 6 ------- null}
h -t 0.096 -s 0 -d 2 -p cbr -e 1000 -c 1 -i 7 -a 1 -x {0.0 4.0 -1 ------- null}
r -t 0.10064 -s 2 -d 3 -p tcp -e 40 -c 2 -i 1 -a 2 -x {1.0 5.0 0 ------- null}
+ -t 0.10064 -s 3 -d 5 -p tcp -e 40 -c 2 -i 1 -a 2 -x {1.0 5.0 0 ------- null}
- -t 0.10064 -s 3 -d 5 -p tcp -e 40 -c 2 -i 1 -a 2 -x {1.0 5.0 0 ------- null}
h -t 0.10064 -s 3 -d 5 -p tcp -e 40 -c 2 -i 1 -a 2 -x {1.0 5.0 -1 ------- null}
r -t 0.106 -s 0 -d 2 -p cbr -e 1000 -c 1 -i 4 -a 1 -x {0.0 4.0 3 ------- null}
+ -t 0.106 -s 2 -d 3 -p cbr -e 1000 -c 1 -i 4 -a 1 -x {0.0 4.0 3 ------- null}
- -t 0.106 -s 2 -d 3 -p cbr -e 1000 -c 1 -i 4 -a 1 -x {0.0 4.0 3 ------- null}
h -t 0.106 -s 2 -d 3 -p cbr -e 1000 -c 1 -i 4 -a 1 -x {0.0 4.0 -1 ------- null}
+ -t 0.112 -s 0 -d 2 -p cbr -e 1000 -c 1 -i 8 -a 1 -x {0.0 4.0 7 ------- null}
- -t 0.112 -s 0 -d 2 -p cbr -e 1000 -c 1 -i 8 -a 1 -x {0.0 4.0 7 ------- null}
h -t 0.112 -s 0 -d 2 -p cbr -e 1000 -c 1 -i 8 -a 1 -x {0.0 4.0 -1 ------- null}
r -t 0.116 -s 2 -d 3 -p cbr -e 1000 -c 1 -i 0 -a 1 -x {0.0 4.0 0 ------- null}
+ -t 0.116 -s 3 -d 4 -p cbr -e 1000 -c 1 -i 0 -a 1 -x {0.0 4.0 0 ------- null}
- -t 0.116 -s 3 -d 4 -p cbr -e 1000 -c 1 -i 0 -a 1 -x {0.0 4.0 0 ------- null}
h -t 0.116 -s 3 -d 4 -p cbr -e 1000 -c 1 -i 0 -a 1 -x {0.0 4.0 -1 ------- null}
r -t 0.122 -s 0 -d 2 -p cbr -e 1000 -c 1 -i 5 -a 1 -x {0.0 4.0 4 ------- null}
+ -t 0.122 -s 2 -d 3 -p cbr -e 1000 -c 1 -i 5 -a 1 -x {0.0 4.0 4 ------- null}
- -t 0.122 -s 2 -d 3 -p cbr -e 1000 -c 1 -i 5 -a 1 -x {0.0 4.0 4 ------- null}
h -t 0.122 -s 2 -d 3 -p cbr -e 1000 -c 1 -i 5 -a 1 -x {0.0 4.0 -1 ------- null}
+ -t 0.128 -s 0 -d 2 -p cbr -e 1000 -c 1 -i 9 -a 1 -x {0.0 4.0 8 ------- null}
- -t 0.128 -s 0 -d 2 -p cbr -e 1000 -c 1 -i 9 -a 1 -x {0.0 4.0 8 ------- null}
h -t 0.128 -s 0 -d 2 -p cbr -e 1000 -c 1 -i 9 -a 1 -x {0.0 4.0 -1 ------- null}
r -t 0.132 -s 2 -d 3 -p cbr -e 1000 -c 1 -i 2 -a 1 -x {0.0 4.0 1 ------- null}
+ -t 0.132 -s 3 -d 4 -p cbr -e 1000 -c 1 -i 2 -a 1 -x {0.0 4.0 1 ------- null}
- -t 0.132 -s 3 -d 4 -p cbr -e 1000 -c 1 -i 2 -a 1 -x {0.0 4.0 1 ------- null}
h -t 0.132 -s 3 -d 4 -p cbr -e 1000 -c 1 -i 2 -a 1 -x {0.0 4.0 -1 ------- null}
r -t 0.138 -s 0 -d 2 -p cbr -e 1000 -c 1 -i 6 -a 1 -x {0.0 4.0 5 ------- null}
+ -t 0.138 -s 2 -d 3 -p cbr -e 1000 -c 1 -i 6 -a 1 -x {0.0 4.0 5 ------- null}
- -t 0.138 -s 2 -d 3 -p cbr -e 1000 -c 1 -i 6 -a 1 -x {0.0 4.0 5 ------- null}
h -t 0.138 -s 2 -d 3 -p cbr -e 1000 -c 1 -i 6 -a 1 -x {0.0 4.0 -1 ------- null}
+ -t 0.144 -s 0 -d 2 -p cbr -e 1000 -c 1 -i 10 -a 1 -x {0.0 4.0 9 ------- null}
- -t 0.144 -s 0 -d 2 -p cbr -e 1000 -c 1 -i 10 -a 1 -x {0.0 4.0 9 ------- null}
h -t 0.144 -s 0 -d 2 -p cbr -e 1000 -c 1 -i 10 -a 1 -x {0.0 4.0 -1 ------- null}
r -t 0.148 -s 2 -d 3 -p cbr -e 1000 -c 1 -i 3 -a 1 -x {0.0 4.0 2 ------- null}
+ -t 0.148 -s 3 -d 4 -p cbr -e 1000 -c 1 -i 3 -a 1 -x {0.0 4.0 2 ------- null}
- -t 0.148 -s 3 -d 4 -p cbr -e 1000 -c 1 -i 3 -a 1 -x {0.0 4.0 2 ------- null}
h -t 0.148 -s 3 -d 4 -p cbr -e 1000 -c 1 -i 3 -a 1 -x {0.0 4.0 -1 ------- null}
r -t 0.15096 -s 3 -d 5 -p tcp -e 40 -c 2 -i 1 -a 2 -x {1.0 5.0 0 ------- null}
+ -t 0.15096 -s 5 -d 3 -p ack -e 40 -c 2 -i 11 -a 2 -x {5.0 1.0 0 ------- null}
- -t 0.15096 -s 5 -d 3 -p ack -e 40 -c 2 -i 11 -a 2 -x {5.0 1.0 0 ------- null}
h -t 0.15096 -s 5 -d 3 -p ack -e 40 -c 2 -i 11 -a 2 -x {5.0 1.0 -1 ------- null}
r -t 0.154 -s 0 -d 2 -p cbr -e 1000 -c 1 -i 7 -a 1 -x {0.0 4.0 6 ------- null}
+ -t 0.154 -s 2 -d 3 -p cbr -e 1000 -c 1 -i 7 -a 1 -x {0.0 4.0 6 ------- null}
- -t 0.154 -s 2 -d 3 -p cbr -e 1000 -c 1 -i 7 -a 1 -x {0.0 4.0 6 ------- null}
h -t 0.154 -s 2 -d 3 -p cbr -e 1000 -c 1 -i 7 -a 1 -x {0.0 4.0 -1 ------- null}
+ -t 0.16 -s 0 -d 2 -p cbr -e 1000 -c 1 -i 12 -a 1 -x {0.0 4.0 10 ------- null}
- -t 0.16 -s 0 -d 2 -p cbr -e 1000 -c 1 -i 12 -a 1 -x {0.0 4.0 10 ------- null}
h -t 0.16 -s 0 -d 2 -p cbr -e 1000 -c 1 -i 12 -a 1 -x {0.0 4.0 -1 ------- null}
r -t 0.164 -s 2 -d 3 -p cbr -e 1000 -c 1 -i 4 -a 1 -x {0.0 4.0 3 ------- null}
+ -t 0.164 -s 3 -d 4 -p cbr -e 1000 -c 1 -i 4 -a 1 -x {0.0 4.0 3 ------- null}
- -t 0.164 -s 3 -d 4 -p cbr -e 1000 -c 1 -i 4 -a 1 -x {0.0 4.0 3 ------- null}
h -t 0.164 -s 3 -d 4 -p cbr -e 1000 -c 1 -i 4 -a 1 -x {0.0 4.0 -1 ------- null}
r -t 0.17 -s 0 -d 2 -p cbr -e 1000 -c 1 -i 8 -a 1 -x {0.0 4.0 7 ------- null}
+ -t 0.17 -s 2 -d 3 -p cbr -e 1000 -c 1 -i 8 -a 1 -x {0.0 4.0 7 ------- null}
- -t 0.17 -s 2 -d 3 -p cbr -e 1000 -c 1 -i 8 -a 1 -x {0.0 4.0 7 ------- null}
h -t 0.17 -s 2 -d 3 -p cbr -e 1000 -c 1 -i 8 -a 1 -x {0.0 4.0 -1 ------- null}
r -t 0.174 -s 3 -d 4 -p cbr -e 1000 -c 1 -i 0 -a 1 -x {0.0 4.0 0 ------- null}
+ -t 0.176 -s 0 -d 2 -p cbr -e 1000 -c 1 -i 13 -a 1 -x {0.0 4.0 11 ------- null}
- -t 0.176 -s 0 -d 2 -p cbr -e 1000 -c 1 -i 13 -a 1 -x {0.0 4.0 11 ------- null}
h -t 0.176 -s 0 -d 2 -p cbr -e 1000 -c 1 -i 13 -a 1 -x {0.0 4.0 -1 ------- null}
r -t 0.18 -s 2 -d 3 -p cbr -e 1000 -c 1 -i 5 -a 1 -x {0.0 4.0 4 ------- null}
+ -t 0.18 -s 3 -d 4 -p cbr -e 1000 -c 1 -i 5 -a 1 -x {0.0 4.0 4 ------- null}
- -t 0.18 -s 3 -d 4 -p cbr -e 1000 -c 1 -i 5 -a 1 -x {0.0 4.0 4 ------- null}
h -t 0.18 -s 3 -d 4 -p cbr -e 1000 -c 1 -i 5 -a 1 -x {0.0 4.0 -1 ------- null}
r -t 0.186 -s 0 -d 2 -p cbr -e 1000 -c 1 -i 9 -a 1 -x {0.0 4.0 8 ------- null}
+ -t 0.186 -s 2 -d 3 -p cbr -e 1000 -c 1 -i 9 -a 1 -x {0.0 4.0 8 ------- null}
- -t 0.186 -s 2 -d 3 -p cbr -e 1000 -c 1 -i 9 -a 1 -x {0.0 4.0 8 ------- null}
h -t 0.186 -s 2 -d 3 -p cbr -e 1000 -c 1 -i 9 -a 1 -x {0.0 4.0 -1 ------- null}
r -t 0.19 -s 3 -d 4 -p cbr -e 1000 -c 1 -i 2 -a 1 -x {0.0 4.0 1 ------- null}
+ -t 0.192 -s 0 -d 2 -p cbr -e 1000 -c 1 -i 14 -a 1 -x {0.0 4.0 12 ------- null}
- -t 0.192 -s 0 -d 2 -p cbr -e 1000 -c 1 -i 14 -a 1 -x {0.0 4.0 12 ------- null}
h -t 0.192 -s 0 -d 2 -p cbr -e 1000 -c 1 -i 14 -a 1 -x {0.0 4.0 -1 ------- null}
r -t 0.196 -s 2 -d 3 -p cbr -e 1000 -c 1 -i 6 -a 1 -x {0.0 4.0 5 ------- null}
+ -t 0.196 -s 3 -d 4 -p cbr -e 1000 -c 1 -i 6 -a 1 -x {0.0 4.0 5 ------- null}
- -t 0.196 -s 3 -d 4 -p cbr -e 1000 -c 1 -i 6 -a 1 -x {0.0 4.0 5 ------- null}
h -t 0.196 -s 3 -d 4 -p cbr -e 1000 -c 1 -i 6 -a 1 -x {0.0 4.0 -1 ------- null}
r -t 0.20128 -s 5 -d 3 -p ack -e 40 -c 2 -i 11 -a 2 -x {5.0 1.0 0 ------- null}
+ -t 0.20128 -s 3 -d 2 -p ack -e 40 -c 2 -i 11 -a 2 -x {5.0 1.0 0 ------- null}
- -t 0.20128 -s 3 -d 2 -p ack -e 40 -c 2 -i 11 -a 2 -x {5.0 1.0 0 ------- null}
h -t 0.20128 -s 3 -d 2 -p ack -e 40 -c 2 -i 11 -a 2 -x {5.0 1.0 -1 ------- null}
r -t 0.202 -s 0 -d 2 -p cbr -e 1000 -c 1 -i 10 -a 1 -x {0.0 4.0 9 ------- null}
+ -t 0.202 -s 2 -d 3 -p cbr -e 1000 -c 1 -i 10 -a 1 -x {0.0 4.0 9 ------- null}
- -t 0.202 -s 2 -d 3 -p cbr -e 1000 -c 1 -i 10 -a 1 -x {0.0 4.0 9 ------- null}
h -t 0.202 -s 2 -d 3 -p cbr -e 1000 -c 1 -i 10 -a 1 -x {0.0 4.0 -1 ------- null}
r -t 0.206 -s 3 -d 4 -p cbr -e 1000 -c 1 -i 3 -a 1 -x {0.0 4.0 2 ------- null}
+ -t 0.208 -s 0 -d 2 -p cbr -e 1000 -c 1 -i 15 -a 1 -x {0.0 4.0 13 ------- null}
- -t 0.208 -s 0 -d 2 -p cbr -e 1000 -c 1 -i 15 -a 1 -x {0.0 4.0 13 ------- null}
h -t 0.208 -s 0 -d 2 -p cbr -e 1000 -c 1 -i 15 -a 1 -x {0.0 4.0 -1 ------- null}
r -t 0.212 -s 2 -d 3 -p cbr -e 1000 -c 1 -i 7 -a 1 -x {0.0 4.0 6 ------- null}
+ -t 0.212 -s 3 -d 4 -p cbr -e 1000 -c 1 -i 7 -a 1 -x {0.0 4.0 6 ------- null}
- -t 0.212 -s 3 -d 4 -p cbr -e 1000 -c 1 -i 7 -a 1 -x {0.0 4.0 6 ------- null}
h -t 0.212 -s 3 -d 4 -p cbr -e 1000 -c 1 -i 7 -a 1 -x {0.0 4.0 -1 ------- null}
r -t 0.218 -s 0 -d 2 -p cbr -e 1000 -c 1 -i 12 -a 1 -x {0.0 4.0 10 ------- null}
+ -t 0.218 -s 2 -d 3 -p cbr -e 1000 -c 1 -i 12 -a 1 -x {0.0 4.0 10 ------- null}
- -t 0.218 -s 2 -d 3 -p cbr -e 1000 -c 1 -i 12 -a 1 -x {0.0 4.0 10 ------- null}
h -t 0.218 -s 2 -d 3 -p cbr -e 1000 -c 1 -i 12 -a 1 -x {0.0 4.0 -1 ------- null}
r -t 0.222 -s 3 -d 4 -p cbr -e 1000 -c 1 -i 4 -a 1 -x {0.0 4.0 3 ------- null}
+ -t 0.224 -s 0 -d 2 -p cbr -e 1000 -c 1 -i 16 -a 1 -x {0.0 4.0 14 ------- null}
- -t 0.224 -s 0 -d 2 -p cbr -e 1000 -c 1 -i 16 -a 1 -x {0.0 4.0 14 ------- null}
h -t 0.224 -s 0 -d 2 -p cbr -e 1000 -c 1 -i 16 -a 1 -x {0.0 4.0 -1 ------- null}
r -t 0.228 -s 2 -d 3 -p cbr -e 1000 -c 1 -i 8 -a 1 -x {0.0 4.0 7 ------- null}
+ -t 0.228 -s 3 -d 4 -p cbr -e 1000 -c 1 -i 8 -a 1 -x {0.0 4.0 7 ------- null}
- -t 0.228 -s 3 -d 4 -p cbr -e 1000 -c 1 -i 8 -a 1 -x {0.0 4.0 7 ------- null}
h -t 0.228 -s 3 -d 4 -p cbr -e 1000 -c 1 -i 8 -a 1 -x {0.0 4.0 -1 ------- null}
r -t 0.234 -s 0 -d 2 -p cbr -e 1000 -c 1 -i 13 -a 1 -x {0.0 4.0 11 ------- null}
+ -t 0.234 -s 2 -d 3 -p cbr -e 1000 -c 1 -i 13 -a 1 -x {0.0 4.0 11 ------- null}
- -t 0.234 -s 2 -d 3 -p cbr -e 1000 -c 1 -i 13 -a 1 -x {0.0 4.0 11 ------- null}
h -t 0.234 -s 2 -d 3 -p cbr -e 1000 -c 1 -i 13 -a 1 -x {0.0 4.0 -1 ------- null}
r -t 0.238 -s 3 -d 4 -p cbr -e 1000 -c 1 -i 5 -a 1 -x {0.0 4.0 4 ------- null}
+ -t 0.24 -s 0 -d 2 -p cbr -e 1000 -c 1 -i 17 -a 1 -x {0.0 4.0 15 ------- null}
- -t 0.24 -s 0 -d 2 -p cbr -e 1000 -c 1 -i 17 -a 1 -x {0.0 4.0 15 ------- null}
h -t 0.24 -s 0 -d 2 -p cbr -e 1000 -c 1 -i 17 -a 1 -x {0.0 4.0 -1 ------- null}
r -t 0.244 -s 2 -d 3 -p cbr -e 1000 -c 1 -i 9 -a 1 -x {0.0 4.0 8 ------- null}
+ -t 0.244 -s 3 -d 4 -p cbr -e 1000 -c 1 -i 9 -a 1 -x {0.0 4.0 8 ------- null}
- -t 0.244 -s 3 -d 4 -p cbr -e 1000 -c 1 -i 9 -a 1 -x {0.0 4.0 8 ------- null}
h -t 0.244 -s 3 -d 4 -p cbr -e 1000 -c 1 -i 9 -a 1 -x {0.0 4.0 -1 ------- null}
r -t 0.25 -s 0 -d 2 -p cbr -e 1000 -c 1 -i 14 -a 1 -x {0.0 4.0 12 ------- null}
+ -t 0.25 -s 2 -d 3 -p cbr -e 1000 -c 1 -i 14 -a 1 -x {0.0 4.0 12 ------- null}
- -t 0.25 -s 2 -d 3 -p cbr -e 1000 -c 1 -i 14 -a 1 -x {0.0 4.0 12 ------- null}
h -t 0.25 -s 2 -d 3 -p cbr -e 1000 -c 1 -i 14 -a 1 -x {0.0 4.0 -1 ------- null}
r -t 0.2516 -s 3 -d 2 -p ack -e 40 -c 2 -i 11 -a 2 -x {5.0 1.0 0 ------- null}
+ -t 0.2516 -s 2 -d 1 -p ack -e 40 -c 2 -i 11 -a 2 -x {5.0 1.0 0 ------- null}
- -t 0.2516 -s 2 -d 1 -p ack -e 40 -c 2 -i 11 -a 2 -x {5.0 1.0 0 ------- null}
h -t 0.2516 -s 2 -d 1 -p ack -e 40 -c 2 -i 11 -a 2 -x {5.0 1.0 -1 ------- null}
r -t 0.254 -s 3 -d 4 -p cbr -e 1000 -c 1 -i 6 -a 1 -x {0.0 4.0 5 ------- null}
+ -t 0.256 -s 0 -d 2 -p cbr -e 1000 -c 1 -i 18 -a 1 -x {0.0 4.0 16 ------- null}
- -t 0.256 -s 0 -d 2 -p cbr -e 1000 -c 1 -i 18 -a 1 -x {0.0 4.0 16 ------- null}
h -t 0.256 -s 0 -d 2 -p cbr -e 1000 -c 1 -i 18 -a 1 -x {0.0 4.0 -1 ------- null}
r -t 0.26 -s 2 -d 3 -p cbr -e 1000 -c 1 -i 10 -a 1 -x {0.0 4.0 9 ------- null}
+ -t 0.26 -s 3 -d 4 -p cbr -e 1000 -c 1 -i 10 -a 1 -x {0.0 4.0 9 ------- null}
- -t 0.26 -s 3 -d 4 -p cbr -e 1000 -c 1 -i 10 -a 1 -x {0.0 4.0 9 ------- null}
h -t 0.26 -s 3 -d 4 -p cbr -e 1000 -c 1 -i 10 -a 1 -x {0.0 4.0 -1 ------- null}
r -t 0.266 -s 0 -d 2 -p cbr -e 1000 -c 1 -i 15 -a 1 -x {0.0 4.0 13 ------- null}
+ -t 0.266 -s 2 -d 3 -p cbr -e 1000 -c 1 -i 15 -a 1 -x {0.0 4.0 13 ------- null}
- -t 0.266 -s 2 -d 3 -p cbr -e 1000 -c 1 -i 15 -a 1 -x {0.0 4.0 13 ------- null}
h -t 0.266 -s 2 -d 3 -p cbr -e 1000 -c 1 -i 15 -a 1 -x {0.0 4.0 -1 ------- null}
r -t 0.27 -s 3 -d 4 -p cbr -e 1000 -c 1 -i 7 -a 1 -x {0.0 4.0 6 ------- null}
+ -t 0.272 -s 0 -d 2 -p cbr -e 1000 -c 1 -i 19 -a 1 -x {0.0 4.0 17 ------- null}
- -t 0.272 -s 0 -d 2 -p cbr -e 1000 -c 1 -i 19 -a 1 -x {0.0 4.0 17 ------- null}
h -t 0.272 -s 0 -d 2 -p cbr -e 1000 -c 1 -i 19 -a 1 -x {0.0 4.0 -1 ------- null}
r -t 0.276 -s 2 -d 3 -p cbr -e 1000 -c 1 -i 12 -a 1 -x {0.0 4.0 10 ------- null}
+ -t 0.276 -s 3 -d 4 -p cbr -e 1000 -c 1 -i 12 -a 1 -x {0.0 4.0 10 ------- null}
- -t 0.276 -s 3 -d 4 -p cbr -e 1000 -c 1 -i 12 -a 1 -x {0.0 4.0 10 ------- null}
h -t 0.276 -s 3 -d 4 -p cbr -e 1000 -c 1 -i 12 -a 1 -x {0.0 4.0 -1 ------- null}
r -t 0.282 -s 0 -d 2 -p cbr -e 1000 -c 1 -i 16 -a 1 -x {0.0 4.0 14 ------- null}
+ -t 0.282 -s 2 -d 3 -p cbr -e 1000 -c 1 -i 16 -a 1 -x {0.0 4.0 14 ------- null}
- -t 0.282 -s 2 -d 3 -p cbr -e 1000 -c 1 -i 16 -a 1 -x {0.0 4.0 14 ------- null}
h -t 0.282 -s 2 -d 3 -p cbr -e 1000 -c 1 -i 16 -a 1 -x {0.0 4.0 -1 ------- null}
r -t 0.286 -s 3 -d 4 -p cbr -e 1000 -c 1 -i 8 -a 1 -x {0.0 4.0 7 ------- null}
+ -t 0.288 -s 0 -d 2 -p cbr -e 1000 -c 1 -i 20 -a 1 -x {0.0 4.0 18 ------- null}
- -t 0.288 -s 0 -d 2 -p cbr -e 1000 -c 1 -i 20 -a 1 -x {0.0 4.0 18 ------- null}
h -t 0.288 -s 0 -d 2 -p cbr -e 1000 -c 1 -i 20 -a 1 -x {0.0 4.0 -1 ------- null}
r -t 0.292 -s 2 -d 3 -p cbr -e 1000 -c 1 -i 13 -a 1 -x {0.0 4.0 11 ------- null}
+ -t 0.292 -s 3 -d 4 -p cbr -e 1000 -c 1 -i 13 -a 1 -x {0.0 4.0 11 ------- null}
- -t 0.292 -s 3 -d 4 -p cbr -e 1000 -c 1 -i 13 -a 1 -x {0.0 4.0 11 ------- null}
h -t 0.292 -s 3 -d 4 -p cbr -e 1000 -c 1 -i 13 -a 1 -x {0.0 4.0 -1 ------- null}
r -t 0.298 -s 0 -d 2 -p cbr -e 1000 -c 1 -i 17 -a 1 -x {0.0 4.0 15 ------- null}
+ -t 0.298 -s 2 -d 3 -p cbr -e 1000 -c 1 -i 17 -a 1 -x {0.0 4.0 15 ------- null}
- -t 0.298 -s 2 -d 3 -p cbr -e 1000 -c 1 -i 17 -a 1 -x {0.0 4.0 15 ------- null}
h -t 0.298 -s 2 -d 3 -p cbr -e 1000 -c 1 -i 17 -a 1 -x {0.0 4.0 -1 ------- null}
r -t 0.30192 -s 2 -d 1 -p ack -e 40 -c 2 -i 11 -a 2 -x {5.0 1.0 0 ------- null}
+ -t 0.30192 -s 1 -d 2 -p tcp -e 1040 -c 2 -i 21 -a 2 -x {1.0 5.0 1 ------- null}
- -t 0.30192 -s 1 -d 2 -p tcp -e 1040 -c 2 -i 21 -a 2 -x {1.0 5.0 1 ------- null}
h -t 0.30192 -s 1 -d 2 -p tcp -e 1040 -c 2 -i 21 -a 2 -x {1.0 5.0 -1 ------- null}
+ -t 0.30192 -s 1 -d 2 -p tcp -e 1040 -c 2 -i 22 -a 2 -x {1.0 5.0 2 ------- null}
r -t 0.302 -s 3 -d 4 -p cbr -e 1000 -c 1 -i 9 -a 1 -x {0.0 4.0 8 ------- null}
+ -t 0.304 -s 0 -d 2 -p cbr -e 1000 -c 1 -i 23 -a 1 -x {0.0 4.0 19 ------- null}
- -t 0.304 -s 0 -d 2 -p cbr -e 1000 -c 1 -i 23 -a 1 -x {0.0 4.0 19 ------- null}
h -t 0.304 -s 0 -d 2 -p cbr -e 1000 -c 1 -i 23 -a 1 -x {0.0 4.0 -1 ------- null}
r -t 0.308 -s 2 -d 3 -p cbr -e 1000 -c 1 -i 14 -a 1 -x {0.0 4.0 12 ------- null}
+ -t 0.308 -s 3 -d 4 -p cbr -e 1000 -c 1 -i 14 -a 1 -x {0.0 4.0 12 ------- null}
- -t 0.308 -s 3 -d 4 -p cbr -e 1000 -c 1 -i 14 -a 1 -x {0.0 4.0 12 ------- null}
h -t 0.308 -s 3 -d 4 -p cbr -e 1000 -c 1 -i 14 -a 1 -x {0.0 4.0 -1 ------- null}
- -t 0.31024 -s 1 -d 2 -p tcp -e 1040 -c 2 -i 22 -a 2 -x {1.0 5.0 2 ------- null}
h -t 0.31024 -s 1 -d 2 -p tcp -e 1040 -c 2 -i 22 -a 2 -x {1.0 5.0 -1 ------- null}
r -t 0.314 -s 0 -d 2 -p cbr -e 1000 -c 1 -i 18 -a 1 -x {0.0 4.0 16 ------- null}
+ -t 0.314 -s 2 -d 3 -p cbr -e 1000 -c 1 -i 18 -a 1 -x {0.0 4.0 16 ------- null}
- -t 0.314 -s 2 -d 3 -p cbr -e 1000 -c 1 -i 18 -a 1 -x {0.0 4.0 16 ------- null}
h -t 0.314 -s 2 -d 3 -p cbr -e 1000 -c 1 -i 18 -a 1 -x {0.0 4.0 -1 ------- null}
r -t 0.318 -s 3 -d 4 -p cbr -e 1000 -c 1 -i 10 -a 1 -x {0.0 4.0 9 ------- null}
+ -t 0.32 -s 0 -d 2 -p cbr -e 1000 -c 1 -i 24 -a 1 -x {0.0 4.0 20 ------- null}
- -t 0.32 -s 0 -d 2 -p cbr -e 1000 -c 1 -i 24 -a 1 -x {0.0 4.0 20 ------- null}
h -t 0.32 -s 0 -d 2 -p cbr -e 1000 -c 1 -i 24 -a 1 -x {0.0 4.0 -1 ------- null}
r -t 0.324 -s 2 -d 3 -p cbr -e 1000 -c 1 -i 15 -a 1 -x {0.0 4.0 13 ------- null}
+ -t 0.324 -s 3 -d 4 -p cbr -e 1000 -c 1 -i 15 -a 1 -x {0.0 4.0 13 ------- null}
- -t 0.324 -s 3 -d 4 -p cbr -e 1000 -c 1 -i 15 -a 1 -x {0.0 4.0 13 ------- null}
h -t 0.324 -s 3 -d 4 -p cbr -e 1000 -c 1 -i 15 -a 1 -x {0.0 4.0 -1 ------- null}
r -t 0.33 -s 0 -d 2 -p cbr -e 1000 -c 1 -i 19 -a 1 -x {0.0 4.0 17 ------- null}
+ -t 0.33 -s 2 -d 3 -p cbr -e 1000 -c 1 -i 19 -a 1 -x {0.0 4.0 17 ------- null}
- -t 0.33 -s 2 -d 3 -p cbr -e 1000 -c 1 -i 19 -a 1 -x {0.0 4.0 17 ------- null}
h -t 0.33 -s 2 -d 3 -p cbr -e 1000 -c 1 -i 19 -a 1 -x {0.0 4.0 -1 ------- null}
r -t 0.334 -s 3 -d 4 -p cbr -e 1000 -c 1 -i 12 -a 1 -x {0.0 4.0 10 ------- null}
+ -t 0.336 -s 0 -d 2 -p cbr -e 1000 -c 1 -i 25 -a 1 -x {0.0 4.0 21 ------- null}
- -t 0.336 -s 0 -d 2 -p cbr -e 1000 -c 1 -i 25 -a 1 -x {0.0 4.0 21 ------- null}
h -t 0.336 -s 0 -d 2 -p cbr -e 1000 -c 1 -i 25 -a 1 -x {0.0 4.0 -1 ------- null}
r -t 0.34 -s 2 -d 3 -p cbr -e 1000 -c 1 -i 16 -a 1 -x {0.0 4.0 14 ------- null}
+ -t 0.34 -s 3 -d 4 -p cbr -e 1000 -c 1 -i 16 -a 1 -x {0.0 4.0 14 ------- null}
- -t 0.34 -s 3 -d 4 -p cbr -e 1000 -c 1 -i 16 -a 1 -x {0.0 4.0 14 ------- null}
h -t 0.34 -s 3 -d 4 -p cbr -e 1000 -c 1 -i 16 -a 1 -x {0.0 4.0 -1 ------- null}
r -t 0.346 -s 0 -d 2 -p cbr -e 1000 -c 1 -i 20 -a 1 -x {0.0 4.0 18 ------- null}
+ -t 0.346 -s 2 -d 3 -p cbr -e 1000 -c 1 -i 20 -a 1 -x {0.0 4.0 18 ------- null}
- -t 0.346 -s 2 -d 3 -p cbr -e 1000 -c 1 -i 20 -a 1 -x {0.0 4.0 18 ------- null}
h -t 0.346 -s 2 -d 3 -p cbr -e 1000 -c 1 -i 20 -a 1 -x {0.0 4.0 -1 ------- null}
r -t 0.35 -s 3 -d 4 -p cbr -e 1000 -c 1 -i 13 -a 1 -x {0.0 4.0 11 ------- null}
+ -t 0.352 -s 0 -d 2 -p cbr -e 1000 -c 1 -i 26 -a 1 -x {0.0 4.0 22 ------- null}
- -t 0.352 -s 0 -d 2 -p cbr -e 1000 -c 1 -i 26 -a 1 -x {0.0 4.0 22 ------- null}
h -t 0.352 -s 0 -d 2 -p cbr -e 1000 -c 1 -i 26 -a 1 -x {0.0 4.0 -1 ------- null}
r -t 0.356 -s 2 -d 3 -p cbr -e 1000 -c 1 -i 17 -a 1 -x {0.0 4.0 15 ------- null}
+ -t 0.356 -s 3 -d 4 -p cbr -e 1000 -c 1 -i 17 -a 1 -x {0.0 4.0 15 ------- null}
- -t 0.356 -s 3 -d 4 -p cbr -e 1000 -c 1 -i 17 -a 1 -x {0.0 4.0 15 ------- null}
h -t 0.356 -s 3 -d 4 -p cbr -e 1000 -c 1 -i 17 -a 1 -x {0.0 4.0 -1 ------- null}
r -t 0.36024 -s 1 -d 2 -p tcp -e 1040 -c 2 -i 21 -a 2 -x {1.0 5.0 1 ------- null}
+ -t 0.36024 -s 2 -d 3 -p tcp -e 1040 -c 2 -i 21 -a 2 -x {1.0 5.0 1 ------- null}
- -t 0.36024 -s 2 -d 3 -p tcp -e 1040 -c 2 -i 21 -a 2 -x {1.0 5.0 1 ------- null}
h -t 0.36024 -s 2 -d 3 -p tcp -e 1040 -c 2 -i 21 -a 2 -x {1.0 5.0 -1 ------- null}
r -t 0.362 -s 0 -d 2 -p cbr -e 1000 -c 1 -i 23 -a 1 -x {0.0 4.0 19 ------- null}
+ -t 0.362 -s 2 -d 3 -p cbr -e 1000 -c 1 -i 23 -a 1 -x {0.0 4.0 19 ------- null}
r -t 0.366 -s 3 -d 4 -p cbr -e 1000 -c 1 -i 14 -a 1 -x {0.0 4.0 12 ------- null}
+ -t 0.368 -s 0 -d 2 -p cbr -e 1000 -c 1 -i 27 -a 1 -x {0.0 4.0 23 ------- null}
- -t 0.368 -s 0 -d 2 -p cbr -e 1000 -c 1 -i 27 -a 1 -x {0.0 4.0 23 ------- null}
h -t 0.368 -s 0 -d 2 -p cbr -e 1000 -c 1 -i 27 -a 1 -x {0.0 4.0 -1 ------- null}
r -t 0.36856 -s 1 -d 2 -p tcp -e 1040 -c 2 -i 22 -a 2 -x {1.0 5.0 2 ------- null}
+ -t 0.36856 -s 2 -d 3 -p tcp -e 1040 -c 2 -i 22 -a 2 -x {1.0 5.0 2 ------- null}
- -t 0.36856 -s 2 -d 3 -p cbr -e 1000 -c 1 -i 23 -a 1 -x {0.0 4.0 19 ------- null}
h -t 0.36856 -s 2 -d 3 -p cbr -e 1000 -c 1 -i 23 -a 1 -x {0.0 4.0 -1 ------- null}
r -t 0.372 -s 2 -d 3 -p cbr -e 1000 -c 1 -i 18 -a 1 -x {0.0 4.0 16 ------- null}
+ -t 0.372 -s 3 -d 4 -p cbr -e 1000 -c 1 -i 18 -a 1 -x {0.0 4.0 16 ------- null}
- -t 0.372 -s 3 -d 4 -p cbr -e 1000 -c 1 -i 18 -a 1 -x {0.0 4.0 16 ------- null}
h -t 0.372 -s 3 -d 4 -p cbr -e 1000 -c 1 -i 18 -a 1 -x {0.0 4.0 -1 ------- null}
- -t 0.37656 -s 2 -d 3 -p tcp -e 1040 -c 2 -i 22 -a 2 -x {1.0 5.0 2 ------- null}
h -t 0.37656 -s 2 -d 3 -p tcp -e 1040 -c 2 -i 22 -a 2 -x {1.0 5.0 -1 ------- null}
r -t 0.378 -s 0 -d 2 -p cbr -e 1000 -c 1 -i 24 -a 1 -x {0.0 4.0 20 ------- null}
+ -t 0.378 -s 2 -d 3 -p cbr -e 1000 -c 1 -i 24 -a 1 -x {0.0 4.0 20 ------- null}
r -t 0.382 -s 3 -d 4 -p cbr -e 1000 -c 1 -i 15 -a 1 -x {0.0 4.0 13 ------- null}
+ -t 0.384 -s 0 -d 2 -p cbr -e 1000 -c 1 -i 28 -a 1 -x {0.0 4.0 24 ------- null}
- -t 0.384 -s 0 -d 2 -p cbr -e 1000 -c 1 -i 28 -a 1 -x {0.0 4.0 24 ------- null}
h -t 0.384 -s 0 -d 2 -p cbr -e 1000 -c 1 -i 28 -a 1 -x {0.0 4.0 -1 ------- null}
- -t 0.38488 -s 2 -d 3 -p cbr -e 1000 -c 1 -i 24 -a 1 -x {0.0 4.0 20 ------- null}
h -t 0.38488 -s 2 -d 3 -p cbr -e 1000 -c 1 -i 24 -a 1 -x {0.0 4.0 -1 ------- null}
r -t 0.388 -s 2 -d 3 -p cbr -e 1000 -c 1 -i 19 -a 1 -x {0.0 4.0 17 ------- null}
+ -t 0.388 -s 3 -d 4 -p cbr -e 1000 -c 1 -i 19 -a 1 -x {0.0 4.0 17 ------- null}
- -t 0.388 -s 3 -d 4 -p cbr -e 1000 -c 1 -i 19 -a 1 -x {0.0 4.0 17 ------- null}
h -t 0.388 -s 3 -d 4 -p cbr -e 1000 -c 1 -i 19 -a 1 -x {0.0 4.0 -1 ------- null}
r -t 0.394 -s 0 -d 2 -p cbr -e 1000 -c 1 -i 25 -a 1 -x {0.0 4.0 21 ------- null}
+ -t 0.394 -s 2 -d 3 -p cbr -e 1000 -c 1 -i 25 -a 1 -x {0.0 4.0 21 ------- null}
- -t 0.394 -s 2 -d 3 -p cbr -e 1000 -c 1 -i 25 -a 1 -x {0.0 4.0 21 ------- null}
h -t 0.394 -s 2 -d 3 -p cbr -e 1000 -c 1 -i 25 -a 1 -x {0.0 4.0 -1 ------- null}
r -t 0.398 -s 3 -d 4 -p cbr -e 1000 -c 1 -i 16 -a 1 -x {0.0 4.0 14 ------- null}
+ -t 0.4 -s 0 -d 2 -p cbr -e 1000 -c 1 -i 29 -a 1 -x {0.0 4.0 25 ------- null}
- -t 0.4 -s 0 -d 2 -p cbr -e 1000 -c 1 -i 29 -a 1 -x {0.0 4.0 25 ------- null}
h -t 0.4 -s 0 -d 2 -p cbr -e 1000 -c 1 -i 29 -a 1 -x {0.0 4.0 -1 ------- null}
r -t 0.404 -s 2 -d 3 -p cbr -e 1000 -c 1 -i 20 -a 1 -x {0.0 4.0 18 ------- null}
+ -t 0.404 -s 3 -d 4 -p cbr -e 1000 -c 1 -i 20 -a 1 -x {0.0 4.0 18 ------- null}
- -t 0.404 -s 3 -d 4 -p cbr -e 1000 -c 1 -i 20 -a 1 -x {0.0 4.0 18 ------- null}
h -t 0.404 -s 3 -d 4 -p cbr -e 1000 -c 1 -i 20 -a 1 -x {0.0 4.0 -1 ------- null}
r -t 0.41 -s 0 -d 2 -p cbr -e 1000 -c 1 -i 26 -a 1 -x {0.0 4.0 22 ------- null}
+ -t 0.41 -s 2 -d 3 -p cbr -e 1000 -c 1 -i 26 -a 1 -x {0.0 4.0 22 ------- null}
- -t 0.41 -s 2 -d 3 -p cbr -e 1000 -c 1 -i 26 -a 1 -x {0.0 4.0 22 ------- null}
h -t 0.41 -s 2 -d 3 -p cbr -e 1000 -c 1 -i 26 -a 1 -x {0.0 4.0 -1 ------- null}
r -t 0.414 -s 3 -d 4 -p cbr -e 1000 -c 1 -i 17 -a 1 -x {0.0 4.0 15 ------- null}
+ -t 0.416 -s 0 -d 2 -p cbr -e 1000 -c 1 -i 30 -a 1 -x {0.0 4.0 26 ------- null}
- -t 0.416 -s 0 -d 2 -p cbr -e 1000 -c 1 -i 30 -a 1 -x {0.0 4.0 26 ------- null}
h -t 0.416 -s 0 -d 2 -p cbr -e 1000 -c 1 -i 30 -a 1 -x {0.0 4.0 -1 ------- null}
r -t 0.41856 -s 2 -d 3 -p tcp -e 1040 -c 2 -i 21 -a 2 -x {1.0 5.0 1 ------- null}
+ -t 0.41856 -s 3 -d 5 -p tcp -e 1040 -c 2 -i 21 -a 2 -x {1.0 5.0 1 ------- null}
- -t 0.41856 -s 3 -d 5 -p tcp -e 1040 -c 2 -i 21 -a 2 -x {1.0 5.0 1 ------- null}
h -t 0.41856 -s 3 -d 5 -p tcp -e 1040 -c 2 -i 21 -a 2 -x {1.0 5.0 -1 ------- null}
r -t 0.426 -s 0 -d 2 -p cbr -e 1000 -c 1 -i 27 -a 1 -x {0.0 4.0 23 ------- null}
+ -t 0.426 -s 2 -d 3 -p cbr -e 1000 -c 1 -i 27 -a 1 -x {0.0 4.0 23 ------- null}
- -t 0.426 -s 2 -d 3 -p cbr -e 1000 -c 1 -i 27 -a 1 -x {0.0 4.0 23 ------- null}
h -t 0.426 -s 2 -d 3 -p cbr -e 1000 -c 1 -i 27 -a 1 -x {0.0 4.0 -1 ------- null}
r -t 0.42656 -s 2 -d 3 -p cbr -e 1000 -c 1 -i 23 -a 1 -x {0.0 4.0 19 ------- null}
+ -t 0.42656 -s 3 -d 4 -p cbr -e 1000 -c 1 -i 23 -a 1 -x {0.0 4.0 19 ------- null}
- -t 0.42656 -s 3 -d 4 -p cbr -e 1000 -c 1 -i 23 -a 1 -x {0.0 4.0 19 ------- null}
h -t 0.42656 -s 3 -d 4 -p cbr -e 1000 -c 1 -i 23 -a 1 -x {0.0 4.0 -1 ------- null}
r -t 0.43 -s 3 -d 4 -p cbr -e 1000 -c 1 -i 18 -a 1 -x {0.0 4.0 16 ------- null}
+ -t 0.432 -s 0 -d 2 -p cbr -e 1000 -c 1 -i 31 -a 1 -x {0.0 4.0 27 ------- null}
- -t 0.432 -s 0 -d 2 -p cbr -e 1000 -c 1 -i 31 -a 1 -x {0.0 4.0 27 ------- null}
h -t 0.432 -s 0 -d 2 -p cbr -e 1000 -c 1 -i 31 -a 1 -x {0.0 4.0 -1 ------- null}
r -t 0.43488 -s 2 -d 3 -p tcp -e 1040 -c 2 -i 22 -a 2 -x {1.0 5.0 2 ------- null}
+ -t 0.43488 -s 3 -d 5 -p tcp -e 1040 -c 2 -i 22 -a 2 -x {1.0 5.0 2 ------- null}
- -t 0.43488 -s 3 -d 5 -p tcp -e 1040 -c 2 -i 22 -a 2 -x {1.0 5.0 2 ------- null}
h -t 0.43488 -s 3 -d 5 -p tcp -e 1040 -c 2 -i 22 -a 2 -x {1.0 5.0 -1 ------- null}
r -t 0.442 -s 0 -d 2 -p cbr -e 1000 -c 1 -i 28 -a 1 -x {0.0 4.0 24 ------- null}
+ -t 0.442 -s 2 -d 3 -p cbr -e 1000 -c 1 -i 28 -a 1 -x {0.0 4.0 24 ------- null}
- -t 0.442 -s 2 -d 3 -p cbr -e 1000 -c 1 -i 28 -a 1 -x {0.0 4.0 24 ------- null}
h -t 0.442 -s 2 -d 3 -p cbr -e 1000 -c 1 -i 28 -a 1 -x {0.0 4.0 -1 ------- null}
r -t 0.44288 -s 2 -d 3 -p cbr -e 1000 -c 1 -i 24 -a 1 -x {0.0 4.0 20 ------- null}
+ -t 0.44288 -s 3 -d 4 -p cbr -e 1000 -c 1 -i 24 -a 1 -x {0.0 4.0 20 ------- null}
- -t 0.44288 -s 3 -d 4 -p cbr -e 1000 -c 1 -i 24 -a 1 -x {0.0 4.0 20 ------- null}
h -t 0.44288 -s 3 -d 4 -p cbr -e 1000 -c 1 -i 24 -a 1 -x {0.0 4.0 -1 ------- null}
r -t 0.446 -s 3 -d 4 -p cbr -e 1000 -c 1 -i 19 -a 1 -x {0.0 4.0 17 ------- null}
+ -t 0.448 -s 0 -d 2 -p cbr -e 1000 -c 1 -i 32 -a 1 -x {0.0 4.0 28 ------- null}
- -t 0.448 -s 0 -d 2 -p cbr -e 1000 -c 1 -i 32 -a 1 -x {0.0 4.0 28 ------- null}
h -t 0.448 -s 0 -d 2 -p cbr -e 1000 -c 1 -i 32 -a 1 -x {0.0 4.0 -1 ------- null}
r -t 0.452 -s 2 -d 3 -p cbr -e 1000 -c 1 -i 25 -a 1 -x {0.0 4.0 21 ------- null}
+ -t 0.452 -s 3 -d 4 -p cbr -e 1000 -c 1 -i 25 -a 1 -x {0.0 4.0 21 ------- null}
- -t 0.452 -s 3 -d 4 -p cbr -e 1000 -c 1 -i 25 -a 1 -x {0.0 4.0 21 ------- null}
h -t 0.452 -s 3 -d 4 -p cbr -e 1000 -c 1 -i 25 -a 1 -x {0.0 4.0 -1 ------- null}
r -t 0.458 -s 0 -d 2 -p cbr -e 1000 -c 1 -i 29 -a 1 -x {0.0 4.0 25 ------- null}
+ -t 0.458 -s 2 -d 3 -p cbr -e 1000 -c 1 -i 29 -a 1 -x {0.0 4.0 25 ------- null}
- -t 0.458 -s 2 -d 3 -p cbr -e 1000 -c 1 -i 29 -a 1 -x {0.0 4.0 25 ------- null}
h -t 0.458 -s 2 -d 3 -p cbr -e 1000 -c 1 -i 29 -a 1 -x {0.0 4.0 -1 ------- null}
r -t 0.462 -s 3 -d 4 -p cbr -e 1000 -c 1 -i 20 -a 1 -x {0.0 4.0 18 ------- null}
+ -t 0.464 -s 0 -d 2 -p cbr -e 1000 -c 1 -i 33 -a 1 -x {0.0 4.0 29 ------- null}
- -t 0.464 -s 0 -d 2 -p cbr -e 1000 -c 1 -i 33 -a 1 -x {0.0 4.0 29 ------- null}
h -t 0.464 -s 0 -d 2 -p cbr -e 1000 -c 1 -i 33 -a 1 -x {0.0 4.0 -1 ------- null}
r -t 0.468 -s 2 -d 3 -p cbr -e 1000 -c 1 -i 26 -a 1 -x {0.0 4.0 22 ------- null}
+ -t 0.468 -s 3 -d 4 -p cbr -e 1000 -c 1 -i 26 -a 1 -x {0.0 4.0 22 ------- null}
- -t 0.468 -s 3 -d 4 -p cbr -e 1000 -c 1 -i 26 -a 1 -x {0.0 4.0 22 ------- null}
h -t 0.468 -s 3 -d 4 -p cbr -e 1000 -c 1 -i 26 -a 1 -x {0.0 4.0 -1 ------- null}
r -t 0.474 -s 0 -d 2 -p cbr -e 1000 -c 1 -i 30 -a 1 -x {0.0 4.0 26 ------- null}
+ -t 0.474 -s 2 -d 3 -p cbr -e 1000 -c 1 -i 30 -a 1 -x {0.0 4.0 26 ------- null}
- -t 0.474 -s 2 -d 3 -p cbr -e 1000 -c 1 -i 30 -a 1 -x {0.0 4.0 26 ------- null}
h -t 0.474 -s 2 -d 3 -p cbr -e 1000 -c 1 -i 30 -a 1 -x {0.0 4.0 -1 ------- null}
r -t 0.47688 -s 3 -d 5 -p tcp -e 1040 -c 2 -i 21 -a 2 -x {1.0 5.0 1 ------- null}
+ -t 0.47688 -s 5 -d 3 -p ack -e 40 -c 2 -i 34 -a 2 -x {5.0 1.0 1 ------- null}
- -t 0.47688 -s 5 -d 3 -p ack -e 40 -c 2 -i 34 -a 2 -x {5.0 1.0 1 ------- null}
h -t 0.47688 -s 5 -d 3 -p ack -e 40 -c 2 -i 34 -a 2 -x {5.0 1.0 -1 ------- null}
+ -t 0.48 -s 0 -d 2 -p cbr -e 1000 -c 1 -i 35 -a 1 -x {0.0 4.0 30 ------- null}
- -t 0.48 -s 0 -d 2 -p cbr -e 1000 -c 1 -i 35 -a 1 -x {0.0 4.0 30 ------- null}
h -t 0.48 -s 0 -d 2 -p cbr -e 1000 -c 1 -i 35 -a 1 -x {0.0 4.0 -1 ------- null}
r -t 0.484 -s 2 -d 3 -p cbr -e 1000 -c 1 -i 27 -a 1 -x {0.0 4.0 23 ------- null}