M 0.00000 0 (374.17, 49.84, 0.00), (309.44, 200.61), 1.69
M 0.00000 1 (339.11, 259.79, 0.00), (70.93, 166.35), 8.58
M 0.00000 2 (162.87, 433.63, 0.00), (148.75, 445.34), 2.09
M 0.00000 3 (121.10, 321.14, 0.00), (19.24, 275.28), 2.92
M 0.00000 4 (111.47, 95.89, 0.00), (49.01, 102.49), 1.07
M 0.00000 5 (239.03, 368.64, 0.00), (360.44, 316.33), 1.91
M 0.00000 6 (338.97, 390.44, 0.00), (78.75, 334.74), 10.86
M 0.00000 7 (271.83, 328.69, 0.00), (127.40, 326.03), 5.58
M 0.00000 8 (310.33, 418.52, 0.00), (102.07, 330.74), 8.10
M 0.00000 9 (401.78, 356.53, 0.00), (425.13, 180.35), 5.76
s 0.100000000 _7_ AGT  --- 0 cbr 1000 [0 0 0 0] ------- [7:0 1:0 32 0] [0] 0 1
r 0.100000000 _7_ RTR  --- 0 cbr 1000 [0 0 0 0] ------- [7:0 1:0 32 0] [0] 0 1
s 0.100000000 _7_ RTR  --- 0 AODV 48 [0 0 0 0] ------- [7:255 -1:255 30 0] [0x2 1 1 [1 0] [7 4]] (REQUEST)
r 0.101508171 _5_ RTR  --- 0 AODV 48 [0 ffffffff 7 800] ------- [7:255 -1:255 30 0] [0x2 1 1 [1 0] [7 4]] (REQUEST)
r 0.101508302 _6_ RTR  --- 0 AODV 48 [0 ffffffff 7 800] ------- [7:255 -1:255 30 0] [0x2 1 1 [1 0] [7 4]] (REQUEST)
r 0.101508321 _1_ RTR  --- 0 AODV 48 [0 ffffffff 7 800] ------- [7:255 -1:255 30 0] [0x2 1 1 [1 0] [7 4]] (REQUEST)
s 0.101508321 _1_ RTR  --- 0 AODV 44 [0 0 0 0] ------- [1:255 7:255 30 7] [0x4 1 [1 4] 10.000000] (REPLY)
r 0.101508325 _8_ RTR  --- 0 AODV 48 [0 ffffffff 7 800] ------- [7:255 -1:255 30 0] [0x2 1 1 [1 0] [7 4]] (REQUEST)
r 0.101508445 _9_ RTR  --- 0 AODV 48 [0 ffffffff 7 800] ------- [7:255 -1:255 30 0] [0x2 1 1 [1 0] [7 4]] (REQUEST)
r 0.101508502 _3_ RTR  --- 0 AODV 48 [0 ffffffff 7 800] ------- [7:255 -1:255 30 0] [0x2 1 1 [1 0] [7 4]] (REQUEST)
r 0.101508504 _2_ RTR  --- 0 AODV 48 [0 ffffffff 7 800] ------- [7:255 -1:255 30 0] [0x2 1 1 [1 0] [7 4]] (REQUEST)
s 0.103854520 _3_ RTR  --- 0 AODV 48 [0 ffffffff 7 800] ------- [3:255 -1:255 29 0] [0x2 2 1 [1 0] [7 4]] (REQUEST)
s 0.104637942 _8_ RTR  --- 0 AODV 48 [0 ffffffff 7 800] ------- [8:255 -1:255 29 0] [0x2 2 1 [1 0] [7 4]] (REQUEST)
r 0.105224760 _2_ RTR  --- 0 AODV 48 [0 ffffffff 3 800] ------- [3:255 -1:255 29 0] [0x2 2 1 [1 0] [7 4]] (REQUEST)
r 0.105224784 _5_ RTR  --- 0 AODV 48 [0 ffffffff 3 800] ------- [3:255 -1:255 29 0] [0x2 2 1 [1 0] [7 4]] (REQUEST)
r 0.105224861 _7_ RTR  --- 0 AODV 48 [0 ffffffff 3 800] ------- [3:255 -1:255 29 0] [0x2 2 1 [1 0] [7 4]] (REQUEST)
r 0.105225066 _8_ RTR  --- 0 AODV 48 [0 ffffffff 3 800] ------- [3:255 -1:255 29 0] [0x2 2 1 [1 0] [7 4]] (REQUEST)
r 0.105225110 _4_ RTR  --- 0 AODV 48 [0 ffffffff 3 800] ------- [3:255 -1:255 29 0] [0x2 2 1 [1 0] [7 4]] (REQUEST)
r 0.105225112 _1_ RTR  --- 0 AODV 48 [0 ffffffff 3 800] ------- [3:255 -1:255 29 0] [0x2 2 1 [1 0] [7 4]] (REQUEST)
r 0.105225118 _6_ RTR  --- 0 AODV 48 [0 ffffffff 3 800] ------- [3:255 -1:255 29 0] [0x2 2 1 [1 0] [7 4]] (REQUEST)
s 0.105919904 _5_ RTR  --- 0 AODV 48 [0 ffffffff 7 800] ------- [5:255 -1:255 29 0] [0x2 2 1 [1 0] [7 4]] (REQUEST)
r 0.106283199 _6_ RTR  --- 0 AODV 48 [0 ffffffff 8 800] ------- [8:255 -1:255 29 0] [0x2 2 1 [1 0] [7 4]] (REQUEST)
r 0.106283353 _5_ RTR  --- 0 AODV 48 [0 ffffffff 8 800] ------- [8:255 -1:255 29 0] [0x2 2 1 [1 0] [7 4]] (REQUEST)
r 0.106283391 _7_ RTR  --- 0 AODV 48 [0 ffffffff 8 800] ------- [8:255 -1:255 29 0] [0x2 2 1 [1 0] [7 4]] (REQUEST)
r 0.106283437 _9_ RTR  --- 0 AODV 48 [0 ffffffff 8 800] ------- [8:255 -1:255 29 0] [0x2 2 1 [1 0] [7 4]] (REQUEST)
r 0.106283558 _2_ RTR  --- 0 AODV 48 [0 ffffffff 8 800] ------- [8:255 -1:255 29 0] [0x2 2 1 [1 0] [7 4]] (REQUEST)
r 0.106283604 _1_ RTR  --- 0 AODV 48 [0 ffffffff 8 800] ------- [8:255 -1:255 29 0] [0x2 2 1 [1 0] [7 4]] (REQUEST)
r 0.106283774 _3_ RTR  --- 0 AODV 48 [0 ffffffff 8 800] ------- [8:255 -1:255 29 0] [0x2 2 1 [1 0] [7 4]] (REQUEST)
r 0.107846567 _7_ RTR  --- 0 AODV 44 [13a 7 1 800] ------- [1:255 7:255 30 7] [0x4 1 [1 4] 10.000000] (REPLY)
s 0.107846567 _7_ RTR  --- 0 cbr 1020 [0 0 0 0] ------- [7:0 1:0 30 1] [0] 0 1
s 0.107897155 _2_ RTR  --- 0 AODV 48 [0 ffffffff 7 800] ------- [2:255 -1:255 29 0] [0x2 2 1 [1 0] [7 4]] (REQUEST)
r 0.109198908 _7_ RTR  --- 0 AODV 48 [0 ffffffff 5 800] ------- [5:255 -1:255 29 0] [0x2 2 1 [1 0] [7 4]] (REQUEST)
r 0.109199024 _8_ RTR  --- 0 AODV 48 [0 ffffffff 5 800] ------- [5:255 -1:255 29 0] [0x2 2 1 [1 0] [7 4]] (REQUEST)
r 0.109199073 _2_ RTR  --- 0 AODV 48 [0 ffffffff 5 800] ------- [5:255 -1:255 29 0] [0x2 2 1 [1 0] [7 4]] (REQUEST)
r 0.109199074 _6_ RTR  --- 0 AODV 48 [0 ffffffff 5 800] ------- [5:255 -1:255 29 0] [0x2 2 1 [1 0] [7 4]] (REQUEST)
r 0.109199163 _3_ RTR  --- 0 AODV 48 [0 ffffffff 5 800] ------- [5:255 -1:255 29 0] [0x2 2 1 [1 0] [7 4]] (REQUEST)
r 0.109199229 _1_ RTR  --- 0 AODV 48 [0 ffffffff 5 800] ------- [5:255 -1:255 29 0] [0x2 2 1 [1 0] [7 4]] (REQUEST)
r 0.109199281 _9_ RTR  --- 0 AODV 48 [0 ffffffff 5 800] ------- [5:255 -1:255 29 0] [0x2 2 1 [1 0] [7 4]] (REQUEST)
s 0.109499857 _6_ RTR  --- 0 AODV 48 [0 ffffffff 7 800] ------- [6:255 -1:255 29 0] [0x2 2 1 [1 0] [7 4]] (REQUEST)
s 0.109673205 _9_ RTR  --- 0 AODV 48 [0 ffffffff 7 800] ------- [9:255 -1:255 29 0] [0x2 2 1 [1 0] [7 4]] (REQUEST)
s 0.113822387 _4_ RTR  --- 0 AODV 48 [0 ffffffff 3 800] ------- [4:255 -1:255 28 0] [0x2 3 1 [1 0] [7 4]] (REQUEST)
r 0.118729871 _1_ AGT  --- 0 cbr 1020 [13a 1 7 800] ------- [7:0 1:0 30 1] [0] 1 1
r 0.119962499 _6_ RTR  --- 0 AODV 48 [0 ffffffff 9 800] ------- [9:255 -1:255 29 0] [0x2 2 1 [1 0] [7 4]] (REQUEST)
r 0.119962641 _1_ RTR  --- 0 AODV 48 [0 ffffffff 9 800] ------- [9:255 -1:255 29 0] [0x2 2 1 [1 0] [7 4]] (REQUEST)
r 0.119963097 _3_ RTR  --- 0 AODV 48 [0 ffffffff 2 800] ------- [2:255 -1:255 29 0] [0x2 2 1 [1 0] [7 4]] (REQUEST)
s 0.120000000 _7_ AGT  --- 1 cbr 1000 [0 0 0 0] ------- [7:0 1:0 32 0] [1] 0 1
r 0.120000000 _7_ RTR  --- 1 cbr 1000 [0 0 0 0] ------- [7:0 1:0 32 0] [1] 0 1
s 0.120000000 _7_ RTR  --- 1 cbr 1020 [0 0 0 0] ------- [7:0 1:0 30 1] [1] 0 1
r 0.121425429 _8_ RTR  --- 0 AODV 48 [0 ffffffff 6 800] ------- [6:255 -1:255 29 0] [0x2 2 1 [1 0] [7 4]] (REQUEST)
r 0.121425539 _9_ RTR  --- 0 AODV 48 [0 ffffffff 6 800] ------- [6:255 -1:255 29 0] [0x2 2 1 [1 0] [7 4]] (REQUEST)
r 0.121425599 _7_ RTR  --- 0 AODV 48 [0 ffffffff 6 800] ------- [6:255 -1:255 29 0] [0x2 2 1 [1 0] [7 4]] (REQUEST)
r 0.121425633 _5_ RTR  --- 0 AODV 48 [0 ffffffff 6 800] ------- [6:255 -1:255 29 0] [0x2 2 1 [1 0] [7 4]] (REQUEST)
r 0.121425733 _1_ RTR  --- 0 AODV 48 [0 ffffffff 6 800] ------- [6:255 -1:255 29 0] [0x2 2 1 [1 0] [7 4]] (REQUEST)
r 0.121425898 _2_ RTR  --- 0 AODV 48 [0 ffffffff 6 800] ------- [6:255 -1:255 29 0] [0x2 2 1 [1 0] [7 4]] (REQUEST)
r 0.121426056 _3_ RTR  --- 0 AODV 48 [0 ffffffff 6 800] ------- [6:255 -1:255 29 0] [0x2 2 1 [1 0] [7 4]] (REQUEST)
r 0.130996562 _1_ AGT  --- 1 cbr 1020 [13a 1 7 800] ------- [7:0 1:0 30 1] [1] 1 1
r 0.132614245 _3_ RTR  --- 0 AODV 48 [0 ffffffff 4 800] ------- [4:255 -1:255 28 0] [0x2 3 1 [1 0] [7 4]] (REQUEST)
s 0.140000000 _7_ AGT  --- 2 cbr 1000 [0 0 0 0] ------- [7:0 1:0 32 0] [2] 0 1
r 0.140000000 _7_ RTR  --- 2 cbr 1000 [0 0 0 0] ------- [7:0 1:0 32 0] [2] 0 1
s 0.140000000 _7_ RTR  --- 2 cbr 1020 [0 0 0 0] ------- [7:0 1:0 30 1] [2] 0 1
r 0.149440963 _1_ AGT  --- 2 cbr 1020 [13a 1 7 800] ------- [7:0 1:0 30 1] [2] 1 1
s 0.160000000 _7_ AGT  --- 3 cbr 1000 [0 0 0 0] ------- [7:0 1:0 32 0] [3] 0 1
r 0.160000000 _7_ RTR  --- 3 cbr 1000 [0 0 0 0] ------- [7:0 1:0 32 0] [3] 0 1
s 0.160000000 _7_ RTR  --- 3 cbr 1020 [0 0 0 0] ------- [7:0 1:0 30 1] [3] 0 1
r 0.169760963 _1_ AGT  --- 3 cbr 1020 [13a 1 7 800] ------- [7:0 1:0 30 1] [3] 1 1
s 0.180000000 _7_ AGT  --- 4 cbr 1000 [0 0 0 0] ------- [7:0 1:0 32 0] [4] 0 1
r 0.180000000 _7_ RTR  --- 4 cbr 1000 [0 0 0 0] ------- [7:0 1:0 32 0] [4] 0 1
s 0.180000000 _7_ RTR  --- 4 cbr 1020 [0 0 0 0] ------- [7:0 1:0 30 1] [4] 0 1
r 0.189480963 _1_ AGT  --- 4 cbr 1020 [13a 1 7 800] ------- [7:0 1:0 30 1] [4] 1 1
s 0.200000000 _7_ AGT  --- 5 cbr 1000 [0 0 0 0] ------- [7:0 1:0 32 0] [5] 0 1
r 0.200000000 _7_ RTR  --- 5 cbr 1000 [0 0 0 0] ------- [7:0 1:0 32 0] [5] 0 1
s 0.200000000 _7_ RTR  --- 5 cbr 1020 [0 0 0 0] ------- [7:0 1:0 30 1] [5] 0 1
r 0.209600963 _1_ AGT  --- 5 cbr 1020 [13a 1 7 800] ------- [7:0 1:0 30 1] [5] 1 1
s 0.220000000 _7_ AGT  --- 6 cbr 1000 [0 0 0 0] ------- [7:0 1:0 32 0] [6] 0 1
r 0.220000000 _7_ RTR  --- 6 cbr 1000 [0 0 0 0] ------- [7:0 1:0 32 0] [6] 0 1
s 0.220000000 _7_ RTR  --- 6 cbr 1020 [0 0 0 0] ------- [7:0 1:0 30 1] [6] 0 1
r 0.229920963 _1_ AGT  --- 6 cbr 1020 [13a 1 7 800] ------- [7:0 1:0 30 1] [6] 1 1
s 0.240000000 _7_ AGT  --- 7 cbr 1000 [0 0 0 0] ------- [7:0 1:0 32 0] [7] 0 1
r 0.240000000 _7_ RTR  --- 7 cbr 1000 [0 0 0 0] ------- [7:0 1:0 32 0] [7] 0 1
s 0.240000000 _7_ RTR  --- 7 cbr 1020 [0 0 0 0] ------- [7:0 1:0 30 1] [7] 0 1
r 0.249600963 _1_ AGT  --- 7 cbr 1020 [13a 1 7 800] ------- [7:0 1:0 30 1] [7] 1 1
s 0.260000000 _7_ AGT  --- 8 cbr 1000 [0 0 0 0] ------- [7:0 1:0 32 0] [8] 0 1
r 0.260000000 _7_ RTR  --- 8 cbr 1000 [0 0 0 0] ------- [7:0 1:0 32 0] [8] 0 1
s 0.260000000 _7_ RTR  --- 8 cbr 1020 [0 0 0 0] ------- [7:0 1:0 30 1] [8] 0 1
r 0.269460964 _1_ AGT  --- 8 cbr 1020 [13a 1 7 800] ------- [7:0 1:0 30 1] [8] 1 1
s 0.280000000 _7_ AGT  --- 9 cbr 1000 [0 0 0 0] ------- [7:0 1:0 32 0] [9] 0 1
r 0.280000000 _7_ RTR  --- 9 cbr 1000 [0 0 0 0] ------- [7:0 1:0 32 0] [9] 0 1
s 0.280000000 _7_ RTR  --- 9 cbr 1020 [0 0 0 0] ------- [7:0 1:0 30 1] [9] 0 1
r 0.289740964 _1_ AGT  --- 9 cbr 1020 [13a 1 7 800] ------- [7:0 1:0 30 1] [9] 1 1
s 0.300000000 _7_ AGT  --- 10 cbr 1000 [0 0 0 0] ------- [7:0 1:0 32 0] [10] 0 1
r 0.300000000 _7_ RTR  --- 10 cbr 1000 [0 0 0 0] ------- [7:0 1:0 32 0] [10] 0 1
s 0.300000000 _7_ RTR  --- 10 cbr 1020 [0 0 0 0] ------- [7:0 1:0 30 1] [10] 0 1
r 0.309680964 _1_ AGT  --- 10 cbr 1020 [13a 1 7 800] ------- [7:0 1:0 30 1] [10] 1 1
s 0.320000000 _7_ AGT  --- 11 cbr 1000 [0 0 0 0] ------- [7:0 1:0 32 0] [11] 0 1
r 0.320000000 _7_ RTR  --- 11 cbr 1000 [0 0 0 0] ------- [7:0 1:0 32 0] [11] 0 1
s 0.320000000 _7_ RTR  --- 11 cbr 1020 [0 0 0 0] ------- [7:0 1:0 30 1] [11] 0 1
r 0.329680964 _1_ AGT  --- 11 cbr 1020 [13a 1 7 800] ------- [7:0 1:0 30 1] [11] 1 1
s 0.340000000 _7_ AGT  --- 12 cbr 1000 [0 0 0 0] ------- [7:0 1:0 32 0] [12] 0 1
r 0.340000000 _7_ RTR  --- 12 cbr 1000 [0 0 0 0] ------- [7:0 1:0 32 0] [12] 0 1
s 0.340000000 _7_ RTR  --- 12 cbr 1020 [0 0 0 0] ------- [7:0 1:0 30 1] [12] 0 1
r 0.349400964 _1_ AGT  --- 12 cbr 1020 [13a 1 7 800] ------- [7:0 1:0 30 1] [12] 1 1
s 0.360000000 _7_ AGT  --- 13 cbr 1000 [0 0 0 0] ------- [7:0 1:0 32 0] [13] 0 1
r 0.360000000 _7_ RTR  --- 13 cbr 1000 [0 0 0 0] ------- [7:0 1:0 32 0] [13] 0 1
s 0.360000000 _7_ RTR  --- 13 cbr 1020 [0 0 0 0] ------- [7:0 1:0 30 1] [13] 0 1
r 0.369720964 _1_ AGT  --- 13 cbr 1020 [13a 1 7 800] ------- [7:0 1:0 30 1] [13] 1 1
s 0.380000000 _7_ AGT  --- 14 cbr 1000 [0 0 0 0] ------- [7:0 1:0 32 0] [14] 0 1
r 0.380000000 _7_ RTR  --- 14 cbr 1000 [0 0 0 0] ------- [7:0 1:0 32 0] [14] 0 1
s 0.380000000 _7_ RTR  --- 14 cbr 1020 [0 0 0 0] ------- [7:0 1:0 30 1] [14] 0 1
r 0.389620964 _1_ AGT  --- 14 cbr 1020 [13a 1 7 800] ------- [7:0 1:0 30 1] [14] 1 1
s 0.400000000 _7_ AGT  --- 15 cbr 1000 [0 0 0 0] ------- [7:0 1:0 32 0] [15] 0 1
r 0.400000000 _7_ RTR  --- 15 cbr 1000 [0 0 0 0] ------- [7:0 1:0 32 0] [15] 0 1
s 0.400000000 _7_ RTR  --- 15 cbr 1020 [0 0 0 0] ------- [7:0 1:0 30 1] [15] 0 1
r 0.409700964 _1_ AGT  --- 15 cbr 1020 [13a 1 7 800] ------- [7:0 1:0 30 1] [15] 1 1
s 0.420000000 _7_ AGT  --- 16 cbr 1000 [0 0 0 0] ------- [7:0 1:0 32 0] [16] 0 1
r 0.420000000 _7_ RTR  --- 16 cbr 1000 [0 0 0 0] ------- [7:0 1:0 32 0] [16] 0 1
s 0.420000000 _7_ RTR  --- 16 cbr 1020 [0 0 0 0] ------- [7:0 1:0 30 1] [16] 0 1
r 0.429640964 _1_ AGT  --- 16 cbr 1020 [13a 1 7 800] ------- [7:0 1:0 30 1] [16] 1 1
s 0.440000000 _7_ AGT  --- 17 cbr 1000 [0 0 0 0] ------- [7:0 1:0 32 0] [17] 0 1
r 0.440000000 _7_ RTR  --- 17 cbr 1000 [0 0 0 0] ------- [7:0 1:0 32 0] [17] 0 1
s 0.440000000 _7_ RTR  --- 17 cbr 1020 [0 0 0 0] ------- [7:0 1:0 30 1] [17] 0 1
r 0.449680964 _1_ AGT  --- 17 cbr 1020 [13a 1 7 800] ------- [7:0 1:0 30 1] [17] 1 1
s 0.460000000 _7_ AGT  --- 18 cbr 1000 [0 0 0 0] ------- [7:0 1:0 32 0] [18] 0 1
r 0.460000000 _7_ RTR  --- 18 cbr 1000 [0 0 0 0] ------- [7:0 1:0 32 0] [18] 0 1
s 0.460000000 _7_ RTR  --- 18 cbr 1020 [0 0 0 0] ------- [7:0 1:0 30 1] [18] 0 1
r 0.469880964 _1_ AGT  --- 18 cbr 1020 [13a 1 7 800] ------- [7:0 1:0 30 1] [18] 1 1
s 0.480000000 _7_ AGT  --- 19 cbr 1000 [0 0 0 0] ------- [7:0 1:0 32 0] [19] 0 1
r 0.480000000 _7_ RTR  --- 19 cbr 1000 [0 0 0 0] ------- [7:0 1:0 32 0] [19] 0 1
s 0.480000000 _7_ RTR  --- 19 cbr 1020 [0 0 0 0] ------- [7:0 1:0 30 1] [19] 0 1
r 0.489520964 _1_ AGT  --- 19 cbr 1020 [13a 1 7 800] ------- [7:0 1:0 30 1] [19] 1 1
s 0.500000000 _7_ AGT  --- 20 cbr 1000 [0 0 0 0] ------- [7:0 1:0 32 0] [20] 0 1
r 0.500000000 _7_ RTR  --- 20 cbr 1000 [0 0 0 0] ------- [7:0 1:0 32 0] [20] 0 1
s 0.500000000 _7_ RTR  --- 20 cbr 1020 [0 0 0 0] ------- [7:0 1:0 30 1] [20] 0 1
r 0.509440964 _1_ AGT  --- 20 cbr 1020 [13a 1 7 800] ------- [7:0 1:0 30 1] [20] 1 1
s 0.520000000 _7_ AGT  --- 21 cbr 1000 [0 0 0 0] ------- [7:0 1:0 32 0] [21] 0 1
r 0.520000000 _7_ RTR  --- 21 cbr 1000 [0 0 0 0] ------- [7:0 1:0 32 0] [21] 0 1
s 0.520000000 _7_ RTR  --- 21 cbr 1020 [0 0 0 0] ------- [7:0 1:0 30 1] [21] 0 1
r 0.529520964 _1_ AGT  --- 21 cbr 1020 [13a 1 7 800] ------- [7:0 1:0 30 1] [21] 1 1
s 0.540000000 _7_ AGT  --- 22 cbr 1000 [0 0 0 0] ------- [7:0 1:0 32 0] [22] 0 1
r 0.540000000 _7_ RTR  --- 22 cbr 1000 [0 0 0 0] ------- [7:0 1:0 32 0] [22] 0 1
s 0.540000000 _7_ RTR  --- 22 cbr 1020 [0 0 0 0] ------- [7:0 1:0 30 1] [22] 0 1
r 0.549500964 _1_ AGT  --- 22 cbr 1020 [13a 1 7 800] ------- [7:0 1:0 30 1] [22] 1 1
s 0.560000000 _7_ AGT  --- 23 cbr 1000 [0 0 0 0] ------- [7:0 1:0 32 0] [23] 0 1
r 0.560000000 _7_ RTR  --- 23 cbr 1000 [0 0 0 0] ------- [7:0 1:0 32 0] [23] 0 1
s 0.560000000 _7_ RTR  --- 23 cbr 1020 [0 0 0 0] ------- [7:0 1:0 30 1] [23] 0 1
r 0.569660964 _1_ AGT  --- 23 cbr 1020 [13a 1 7 800] ------- [7:0 1:0 30 1] [23] 1 1
s 0.580000000 _7_ AGT  --- 24 cbr 1000 [0 0 0 0] ------- [7:0 1:0 32 0] [24] 0 1
r 0.580000000 _7_ RTR  --- 24 cbr 1000 [0 0 0 0] ------- [7:0 1:0 32 0] [24] 0 1
s 0.580000000 _7_ RTR  --- 24 cbr 1020 [0 0 0 0] ------- [7:0 1:0 30 1] [24] 0 1
r 0.589460964 _1_ AGT  --- 24 cbr 1020 [13a 1 7 800] ------- [7:0 1:0 30 1] [24] 1 1
s 0.600000000 _7_ AGT  --- 25 cbr 1000 [0 0 0 0] ------- [7:0 1:0 32 0] [25] 0 1
r 0.600000000 _7_ RTR  --- 25 cbr 1000 [0 0 0 0] ------- [7:0 1:0 32 0] [25] 0 1
s 0.600000000 _7_ RTR  --- 25 cbr 1020 [0 0 0 0] ------- [7:0 1:0 30 1] [25] 0 1
r 0.610000964 _1_ AGT  --- 25 cbr 1020 [13a 1 7 800] ------- [7:0 1:0 30 1] [25] 1 1
s 0.620000000 _7_ AGT  --- 26 cbr 1000 [0 0 0 0] ------- [7:0 1:0 32 0] [26] 0 1
r 0.620000000 _7_ RTR  --- 26 cbr 1000 [0 0 0 0] ------- [7:0 1:0 32 0] [26] 0 1
s 0.620000000 _7_ RTR  --- 26 cbr 1020 [0 0 0 0] ------- [7:0 1:0 30 1] [26] 0 1
r 0.629460964 _1_ AGT  --- 26 cbr 1020 [13a 1 7 800] ------- [7:0 1:0 30 1] [26] 1 1
s 0.640000000 _7_ AGT  --- 27 cbr 1000 [0 0 0 0] ------- [7:0 1:0 32 0] [27] 0 1
r 0.640000000 _7_ RTR  --- 27 cbr 1000 [0 0 0 0] ------- [7:0 1:0 32 0] [27] 0 1
s 0.640000000 _7_ RTR  --- 27 cbr 1020 [0 0 0 0] ------- [7:0 1:0 30 1] [27] 0 1
r 0.649520964 _1_ AGT  --- 27 cbr 1020 [13a 1 7 800] ------- [7:0 1:0 30 1] [27] 1 1
s 0.660000000 _7_ AGT  --- 28 cbr 1000 [0 0 0 0] ------- [7:0 1:0 32 0] [28] 0 1
r 0.660000000 _7_ RTR  --- 28 cbr 1000 [0 0 0 0] ------- [7:0 1:0 32 0] [28] 0 1
s 0.660000000 _7_ RTR  --- 28 cbr 1020 [0 0 0 0] ------- [7:0 1:0 30 1] [28] 0 1
r 0.669840965 _1_ AGT  --- 28 cbr 1020 [13a 1 7 800] ------- [7:0 1:0 30 1] [28] 1 1
s 0.680000000 _7_ AGT  --- 29 cbr 1000 [0 0 0 0] ------- [7:0 1:0 32 0] [29] 0 1
r 0.680000000 _7_ RTR  --- 29 cbr 1000 [0 0 0 0] ------- [7:0 1:0 32 0] [29] 0 1
s 0.680000000 _7_ RTR  --- 29 cbr 1020 [0 0 0 0] ------- [7:0 1:0 30 1] [29] 0 1
r 0.689700965 _1_ AGT  --- 29 cbr 1020 [13a 1 7 800] ------- [7:0 1:0 30 1] [29] 1 1
s 0.700000000 _7_ AGT  --- 30 cbr 1000 [0 0 0 0] ------- [7:0 1:0 32 0] [30] 0 1
r 0.700000000 _7_ RTR  --- 30 cbr 1000 [0 0 0 0] ------- [7:0 1:0 32 0] [30] 0 1
s 0.700000000 _7_ RTR  --- 30 cbr 1020 [0 0 0 0] ------- [7:0 1:0 30 1] [30] 0 1
r 0.709700965 _1_ AGT  --- 30 cbr 1020 [13a 1 7 800] ------- [7:0 1:0 30 1] [30] 1 1
s 0.720000000 _7_ AGT  --- 31 cbr 1000 [0 0 0 0] ------- [7:0 1:0 32 0] [31] 0 1
r 0.720000000 _7_ RTR  --- 31 cbr 1000 [0 0 0 0] ------- [7:0 1:0 32 0] [31] 0 1
s 0.720000000 _7_ RTR  --- 31 cbr 1020 [0 0 0 0] ------- [7:0 1:0 30 1] [31] 0 1
r 0.729440965 _1_ AGT  --- 31 cbr 1020 [13a 1 7 800] ------- [7:0 1:0 30 1] [31] 1 1
s 0.740000000 _7_ AGT  --- 32 cbr 1000 [0 0 0 0] ------- [7:0 1:0 32 0] [32] 0 1
r 0.740000000 _7_ RTR  --- 32 cbr 1000 [0 0 0 0] ------- [7:0 1:0 32 0] [32] 0 1
s 0.740000000 _7_ RTR  --- 32 cbr 1020 [0 0 0 0] ------- [7:0 1:0 30 1] [32] 0 1
r 0.749620965 _1_ AGT  --- 32 cbr 1020 [13a 1 7 800] ------- [7:0 1:0 30 1] [32] 1 1
s 0.760000000 _7_ AGT  --- 33 cbr 1000 [0 0 0 0] ------- [7:0 1:0 32 0] [33] 0 1
r 0.760000000 _7_ RTR  --- 33 cbr 1000 [0 0 0 0] ------- [7:0 1:0 32 0] [33] 0 1
s 0.760000000 _7_ RTR  --- 33 cbr 1020 [0 0 0 0] ------- [7:0 1:0 30 1] [33] 0 1
r 0.769560965 _1_ AGT  --- 33 cbr 1020 [13a 1 7 800] ------- [7:0 1:0 30 1] [33] 1 1
s 0.780000000 _7_ AGT  --- 34 cbr 1000 [0 0 0 0] ------- [7:0 1:0 32 0] [34] 0 1
r 0.780000000 _7_ RTR  --- 34 cbr 1000 [0 0 0 0] ------- [7:0 1:0 32 0] [34] 0 1
s 0.780000000 _7_ RTR  --- 34 cbr 1020 [0 0 0 0] ------- [7:0 1:0 30 1] [34] 0 1
r 0.789800965 _1_ AGT  --- 34 cbr 1020 [13a 1 7 800] ------- [7:0 1:0 30 1] [34] 1 1
s 0.800000000 _7_ AGT  --- 35 cbr 1000 [0 0 0 0] ------- [7:0 1:0 32 0] [35] 0 1
r 0.800000000 _7_ RTR  --- 35 cbr 1000 [0 0 0 0] ------- [7:0 1:0 32 0] [35] 0 1
s 0.800000000 _7_ RTR  --- 35 cbr 1020 [0 0 0 0] ------- [7:0 1:0 30 1] [35] 0 1
r 0.809560965 _1_ AGT  --- 35 cbr 1020 [13a 1 7 800] ------- [7:0 1:0 30 1] [35] 1 1
s 0.820000000 _7_ AGT  --- 36 cbr 1000 [0 0 0 0] ------- [7:0 1:0 32 0] [36] 0 1
r 0.820000000 _7_ RTR  --- 36 cbr 1000 [0 0 0 0] ------- [7:0 1:0 32 0] [36] 0 1
s 0.820000000 _7_ RTR  --- 36 cbr 1020 [0 0 0 0] ------- [7:0 1:0 30 1] [36] 0 1
r 0.829400965 _1_ AGT  --- 36 cbr 1020 [13a 1 7 800] ------- [7:0 1:0 30 1] [36] 1 1
s 0.840000000 _7_ AGT  --- 37 cbr 1000 [0 0 0 0] ------- [7:0 1:0 32 0] [37] 0 1
r 0.840000000 _7_ RTR  --- 37 cbr 1000 [0 0 0 0] ------- [7:0 1:0 32 0] [37] 0 1
s 0.840000000 _7_ RTR  --- 37 cbr 1020 [0 0 0 0] ------- [7:0 1:0 30 1] [37] 0 1
r 0.849760965 _1_ AGT  --- 37 cbr 1020 [13a 1 7 800] ------- [7:0 1:0 30 1] [37] 1 1
s 0.860000000 _7_ AGT  --- 38 cbr 1000 [0 0 0 0] ------- [7:0 1:0 32 0] [38] 0 1
r 0.860000000 _7_ RTR  --- 38 cbr 1000 [0 0 0 0] ------- [7:0 1:0 32 0] [38] 0 1
s 0.860000000 _7_ RTR  --- 38 cbr 1020 [0 0 0 0] ------- [7:0 1:0 30 1] [38] 0 1
r 0.869820965 _1_ AGT  --- 38 cbr 1020 [13a 1 7 800] ------- [7:0 1:0 30 1] [38] 1 1
s 0.880000000 _7_ AGT  --- 39 cbr 1000 [0 0 0 0] ------- [7:0 1:0 32 0] [39] 0 1
r 0.880000000 _7_ RTR  --- 39 cbr 1000 [0 0 0 0] ------- [7:0 1:0 32 0] [39] 0 1
s 0.880000000 _7_ RTR  --- 39 cbr 1020 [0 0 0 0] ------- [7:0 1:0 30 1] [39] 0 1
r 0.889720965 _1_ AGT  --- 39 cbr 1020 [13a 1 7 800] ------- [7:0 1:0 30 1] [39] 1 1
s 0.900000000 _7_ AGT  --- 40 cbr 1000 [0 0 0 0] ------- [7:0 1:0 32 0] [40] 0 1
r 0.900000000 _7_ RTR  --- 40 cbr 1000 [0 0 0 0] ------- [7:0 1:0 32 0] [40] 0 1
s 0.900000000 _7_ RTR  --- 40 cbr 1020 [0 0 0 0] ------- [7:0 1:0 30 1] [40] 0 1
r 0.909420965 _1_ AGT  --- 40 cbr 1020 [13a 1 7 800] ------- [7:0 1:0 30 1] [40] 1 1
s 0.920000000 _7_ AGT  --- 41 cbr 1000 [0 0 0 0] ------- [7:0 1:0 32 0] [41] 0 1
r 0.920000000 _7_ RTR  --- 41 cbr 1000 [0 0 0 0] ------- [7:0 1:0 32 0] [41] 0 1
s 0.920000000 _7_ RTR  --- 41 cbr 1020 [0 0 0 0] ------- [7:0 1:0 30 1] [41] 0 1
r 0.929500965 _1_ AGT  --- 41 cbr 1020 [13a 1 7 800] ------- [7:0 1:0 30 1] [41] 1 1
s 0.940000000 _7_ AGT  --- 42 cbr 1000 [0 0 0 0] ------- [7:0 1:0 32 0] [42] 0 1
r 0.940000000 _7_ RTR  --- 42 cbr 1000 [0 0 0 0] ------- [7:0 1:0 32 0] [42] 0 1
s 0.940000000 _7_ RTR  --- 42 cbr 1020 [0 0 0 0] ------- [7:0 1:0 30 1] [42] 0 1
r 0.949460965 _1_ AGT  --- 42 cbr 1020 [13a 1 7 800] ------- [7:0 1:0 30 1] [42] 1 1
s 0.960000000 _7_ AGT  --- 43 cbr 1000 [0 0 0 0] ------- [7:0 1:0 32 0] [43] 0 1
r 0.960000000 _7_ RTR  --- 43 cbr 1000 [0 0 0 0] ------- [7:0 1:0 32 0] [43] 0 1
s 0.960000000 _7_ RTR  --- 43 cbr 1020 [0 0 0 0] ------- [7:0 1:0 30 1] [43] 0 1
r 0.970000965 _1_ AGT  --- 43 cbr 1020 [13a 1 7 800] ------- [7:0 1:0 30 1] [43] 1 1
s 0.980000000 _7_ AGT  --- 44 cbr 1000 [0 0 0 0] ------- [7:0 1:0 32 0] [44] 0 1
r 0.980000000 _7_ RTR  --- 44 cbr 1000 [0 0 0 0] ------- [7:0 1:0 32 0] [44] 0 1
s 0.980000000 _7_ RTR  --- 44 cbr 1020 [0 0 0 0] ------- [7:0 1:0 30 1] [44] 0 1
r 0.989420965 _1_ AGT  --- 44 cbr 1020 [13a 1 7 800] ------- [7:0 1:0 30 1] [44] 1 1
s 1.000000000 _7_ AGT  --- 45 cbr 1000 [0 0 0 0] ------- [7:0 1:0 32 0] [45] 0 1
r 1.000000000 _7_ RTR  --- 45 cbr 1000 [0 0 0 0] ------- [7:0 1:0 32 0] [45] 0 1
s 1.000000000 _7_ RTR  --- 45 cbr 1020 [0 0 0 0] ------- [7:0 1:0 30 1] [45] 0 1
r 1.009460966 _1_ AGT  --- 45 cbr 1020 [13a 1 7 800] ------- [7:0 1:0 30 1] [45] 1 1
s 1.020000000 _7_ AGT  --- 46 cbr 1000 [0 0 0 0] ------- [7:0 1:0 32 0] [46] 0 1
r 1.020000000 _7_ RTR  --- 46 cbr 1000 [0 0 0 0] ------- [7:0 1:0 32 0] [46] 0 1
s 1.020000000 _7_ RTR  --- 46 cbr 1020 [0 0 0 0] ------- [7:0 1:0 30 1] [46] 0 1
r 1.029420966 _1_ AGT  --- 46 cbr 1020 [13a 1 7 800] ------- [7:0 1:0 30 1] [46] 1 1
s 1.040000000 _7_ AGT  --- 47 cbr 1000 [0 0 0 0] ------- [7:0 1:0 32 0] [47] 0 1
r 1.040000000 _7_ RTR  --- 47 cbr 1000 [0 0 0 0] ------- [7:0 1:0 32 0] [47] 0 1
s 1.040000000 _7_ RTR  --- 47 cbr 1020 [0 0 0 0] ------- [7:0 1:0 30 1] [47] 0 1
r 1.049780966 _1_ AGT  --- 47 cbr 1020 [13a 1 7 800] ------- [7:0 1:0 30 1] [47] 1 1
s 1.060000000 _7_ AGT  --- 48 cbr 1000 [0 0 0 0] ------- [7:0 1:0 32 0] [48] 0 1
r 1.060000000 _7_ RTR  --- 48 cbr 1000 [0 0 0 0] ------- [7:0 1:0 32 0] [48] 0 1
s 1.060000000 _7_ RTR  --- 48 cbr 1020 [0 0 0 0] ------- [7:0 1:0 30 1] [48] 0 1
r 1.069780966 _1_ AGT  --- 48 cbr 1020 [13a 1 7 800] ------- [7:0 1:0 30 1] [48] 1 1
s 1.080000000 _7_ AGT  --- 49 cbr 1000 [0 0 0 0] ------- [7:0 1:0 32 0] [49] 0 1
r 1.080000000 _7_ RTR  --- 49 cbr 1000 [0 0 0 0] ------- [7:0 1:0 32 0] [49] 0 1
s 1.080000000 _7_ RTR  --- 49 cbr 1020 [0 0 0 0] ------- [7:0 1:0 30 1] [49] 0 1
r 1.089720966 _1_ AGT  --- 49 cbr 1020 [13a 1 7 800] ------- [7:0 1:0 30 1] [49] 1 1
s 1.100000000 _7_ AGT  --- 50 cbr 1000 [0 0 0 0] ------- [7:0 1:0 32 0] [50] 0 1
r 1.100000000 _7_ RTR  --- 50 cbr 1000 [0 0 0 0] ------- [7:0 1:0 32 0] [50] 0 1
s 1.100000000 _7_ RTR  --- 50 cbr 1020 [0 0 0 0] ------- [7:0 1:0 30 1] [50] 0 1
r 1.109940966 _1_ AGT  --- 50 cbr 1020 [13a 1 7 800] ------- [7:0 1:0 30 1] [50] 1 1
s 1.120000000 _7_ AGT  --- 51 cbr 1000 [0 0 0 0] ------- [7:0 1:0 32 0] [51] 0 1
r 1.120000000 _7_ RTR  --- 51 cbr 1000 [0 0 0 0] ------- [7:0 1:0 32 0] [51] 0 1
s 1.120000000 _7_ RTR  --- 51 cbr 1020 [0 0 0 0] ------- [7:0 1:0 30 1] [51] 0 1
r 1.129540966 _1_ AGT  --- 51 cbr 1020 [13a 1 7 800] ------- [7:0 1:0 30 1] [51] 1 1
s 1.140000000 _7_ AGT  --- 52 cbr 1000 [0 0 0 0] ------- [7:0 1:0 32 0] [52] 0 1
r 1.140000000 _7_ RTR  --- 52 cbr 1000 [0 0 0 0] ------- [7:0 1:0 32 0] [52] 0 1
s 1.140000000 _7_ RTR  --- 52 cbr 1020 [0 0 0 0] ------- [7:0 1:0 30 1] [52] 0 1
r 1.149400966 _1_ AGT  --- 52 cbr 1020 [13a 1 7 800] ------- [7:0 1:0 30 1] [52] 1 1
s 1.160000000 _7_ AGT  --- 53 cbr 1000 [0 0 0 0] ------- [7:0 1:0 32 0] [53] 0 1
r 1.160000000 _7_ RTR  --- 53 cbr 1000 [0 0 0 0] ------- [7:0 1:0 32 0] [53] 0 1
s 1.160000000 _7_ RTR  --- 53 cbr 1020 [0 0 0 0] ------- [7:0 1:0 30 1] [53] 0 1
r 1.169400966 _1_ AGT  --- 53 cbr 1020 [13a 1 7 800] ------- [7:0 1:0 30 1] [53] 1 1
s 1.180000000 _7_ AGT  --- 54 cbr 1000 [0 0 0 0] ------- [7:0 1:0 32 0] [54] 0 1
r 1.180000000 _7_ RTR  --- 54 cbr 1000 [0 0 0 0] ------- [7:0 1:0 32 0] [54] 0 1
s 1.180000000 _7_ RTR  --- 54 cbr 1020 [0 0 0 0] ------- [7:0 1:0 30 1] [54] 0 1
r 1.189960966 _1_ AGT  --- 54 cbr 1020 [13a 1 7 800] ------- [7:0 1:0 30 1] [54] 1 1
s 1.200000000 _7_ AGT  --- 55 cbr 1000 [0 0 0 0] ------- [7:0 1:0 32 0] [55] 0 1
r 1.200000000 _7_ RTR  --- 55 cbr 1000 [0 0 0 0] ------- [7:0 1:0 32 0] [55] 0 1
s 1.200000000 _7_ RTR  --- 55 cbr 1020 [0 0 0 0] ------- [7:0 1:0 30 1] [55] 0 1
r 1.209980966 _1_ AGT  --- 55 cbr 1020 [13a 1 7 800] ------- [7:0 1:0 30 1] [55] 1 1
s 1.220000000 _7_ AGT  --- 56 cbr 1000 [0 0 0 0] ------- [7:0 1:0 32 0] [56] 0 1
r 1.220000000 _7_ RTR  --- 56 cbr 1000 [0 0 0 0] ------- [7:0 1:0 32 0] [56] 0 1
s 1.220000000 _7_ RTR  --- 56 cbr 1020 [0 0 0 0] ------- [7:0 1:0 30 1] [56] 0 1
r 1.229920966 _1_ AGT  --- 56 cbr 1020 [13a 1 7 800] ------- [7:0 1:0 30 1] [56] 1 1
s 1.240000000 _7_ AGT  --- 57 cbr 1000 [0 0 0 0] ------- [7:0 1:0 32 0] [57] 0 1
r 1.240000000 _7_ RTR  --- 57 cbr 1000 [0 0 0 0] ------- [7:0 1:0 32 0] [57] 0 1
s 1.240000000 _7_ RTR  --- 57 cbr 1020 [0 0 0 0] ------- [7:0 1:0 30 1] [57] 0 1
r 1.249640966 _1_ AGT  --- 57 cbr 1020 [13a 1 7 800] ------- [7:0 1:0 30 1] [57] 1 1
s 1.260000000 _7_ AGT  --- 58 cbr 1000 [0 0 0 0] ------- [7:0 1:0 32 0] [58] 0 1
r 1.260000000 _7_ RTR  --- 58 cbr 1000 [0 0 0 0] ------- [7:0 1:0 32 0] [58] 0 1
s 1.260000000 _7_ RTR  --- 58 cbr 1020 [0 0 0 0] ------- [7:0 1:0 30 1] [58] 0 1
r 1.269500966 _1_ AGT  --- 58 cbr 1020 [13a 1 7 800] ------- [7:0 1:0 30 1] [58] 1 1
s 1.280000000 _7_ AGT  --- 59 cbr 1000 [0 0 0 0] ------- [7:0 1:0 32 0] [59] 0 1
r 1.280000000 _7_ RTR  --- 59 cbr 1000 [0 0 0 0] ------- [7:0 1:0 32 0] [59] 0 1
s 1.280000000 _7_ RTR  --- 59 cbr 1020 [0 0 0 0] ------- [7:0 1:0 30 1] [59] 0 1
r 1.289400967 _1_ AGT  --- 59 cbr 1020 [13a 1 7 800] ------- [7:0 1:0 30 1] [59] 1 1
s 1.300000000 _7_ AGT  --- 60 cbr 1000 [0 0 0 0] ------- [7:0 1:0 32 0] [60] 0 1
r 1.300000000 _7_ RTR  --- 60 cbr 1000 [0 0 0 0] ------- [7:0 1:0 32 0] [60] 0 1
s 1.300000000 _7_ RTR  --- 60 cbr 1020 [0 0 0 0] ------- [7:0 1:0 30 1] [60] 0 1
r 1.309900967 _1_ AGT  --- 60 cbr 1020 [13a 1 7 800] ------- [7:0 1:0 30 1] [60] 1 1
s 1.320000000 _7_ AGT  --- 61 cbr 1000 [0 0 0 0] ------- [7:0 1:0 32 0] [61] 0 1
r 1.320000000 _7_ RTR  --- 61 cbr 1000 [0 0 0 0] ------- [7:0 1:0 32 0] [61] 0 1
s 1.320000000 _7_ RTR  --- 61 cbr 1020 [0 0 0 0] ------- [7:0 1:0 30 1] [61] 0 1
r 1.329400967 _1_ AGT  --- 61 cbr 1020 [13a 1 7 800] ------- [7:0 1:0 30 1] [61] 1 1
s 1.340000000 _7_ AGT  --- 62 cbr 1000 [0 0 0 0] ------- [7:0 1:0 32 0] [62] 0 1
r 1.340000000 _7_ RTR  --- 62 cbr 1000 [0 0 0 0] ------- [7:0 1:0 32 0] [62] 0 1
s 1.340000000 _7_ RTR  --- 62 cbr 1020 [0 0 0 0] ------- [7:0 1:0 30 1] [62] 0 1
r 1.349760967 _1_ AGT  --- 62 cbr 1020 [13a 1 7 800] ------- [7:0 1:0 30 1] [62] 1 1
s 1.360000000 _7_ AGT  --- 63 cbr 1000 [0 0 0 0] ------- [7:0 1:0 32 0] [63] 0 1
r 1.360000000 _7_ RTR  --- 63 cbr 1000 [0 0 0 0] ------- [7:0 1:0 32 0] [63] 0 1
s 1.360000000 _7_ RTR  --- 63 cbr 1020 [0 0 0 0] ------- [7:0 1:0 30 1] [63] 0 1
r 1.369900967 _1_ AGT  --- 63 cbr 1020 [13a 1 7 800] ------- [7:0 1:0 30 1] [63] 1 1
s 1.380000000 _7_ AGT  --- 64 cbr 1000 [0 0 0 0] ------- [7:0 1:0 32 0] [64] 0 1
r 1.380000000 _7_ RTR  --- 64 cbr 1000 [0 0 0 0] ------- [7:0 1:0 32 0] [64] 0 1
s 1.380000000 _7_ RTR  --- 64 cbr 1020 [0 0 0 0] ------- [7:0 1:0 30 1] [64] 0 1
r 1.389540967 _1_ AGT  --- 64 cbr 1020 [13a 1 7 800] ------- [7:0 1:0 30 1] [64] 1 1
s 1.400000000 _7_ AGT  --- 65 cbr 1000 [0 0 0 0] ------- [7:0 1:0 32 0] [65] 0 1
r 1.400000000 _7_ RTR  --- 65 cbr 1000 [0 0 0 0] ------- [7:0 1:0 32 0] [65] 0 1
s 1.400000000 _7_ RTR  --- 65 cbr 1020 [0 0 0 0] ------- [7:0 1:0 30 1] [65] 0 1
r 1.409940967 _1_ AGT  --- 65 cbr 1020 [13a 1 7 800] ------- [7:0 1:0 30 1] [65] 1 1
s 1.420000000 _7_ AGT  --- 66 cbr 1000 [0 0 0 0] ------- [7:0 1:0 32 0] [66] 0 1
r 1.420000000 _7_ RTR  --- 66 cbr 1000 [0 0 0 0] ------- [7:0 1:0 32 0] [66] 0 1
s 1.420000000 _7_ RTR  --- 66 cbr 1020 [0 0 0 0] ------- [7:0 1:0 30 1] [66] 0 1
r 1.429880967 _1_ AGT  --- 66 cbr 1020 [13a 1 7 800] ------- [7:0 1:0 30 1] [66] 1 1
s 1.440000000 _7_ AGT  --- 67 cbr 1000 [0 0 0 0] ------- [7:0 1:0 32 0] [67] 0 1
r 1.440000000 _7_ RTR  --- 67 cbr 1000 [0 0 0 0] ------- [7:0 1:0 32 0] [67] 0 1
s 1.440000000 _7_ RTR  --- 67 cbr 1020 [0 0 0 0] ------- [7:0 1:0 30 1] [67] 0 1
r 1.449400967 _1_ AGT  --- 67 cbr 1020 [13a 1 7 800] ------- [7:0 1:0 30 1] [67] 1 1
s 1.460000000 _7_ AGT  --- 68 cbr 1000 [0 0 0 0] ------- [7:0 1:0 32 0] [68] 0 1
r 1.460000000 _7_ RTR  --- 68 cbr 1000 [0 0 0 0] ------- [7:0 1:0 32 0] [68] 0 1
s 1.460000000 _7_ RTR  --- 68 cbr 1020 [0 0 0 0] ------- [7:0 1:0 30 1] [68] 0 1
r 1.469960967 _1_ AGT  --- 68 cbr 1020 [13a 1 7 800] ------- [7:0 1:0 30 1] [68] 1 1
s 1.480000000 _7_ AGT  --- 69 cbr 1000 [0 0 0 0] ------- [7:0 1:0 32 0] [69] 0 1
r 1.480000000 _7_ RTR  --- 69 cbr 1000 [0 0 0 0] ------- [7:0 1:0 32 0] [69] 0 1
s 1.480000000 _7_ RTR  --- 69 cbr 1020 [0 0 0 0] ------- [7:0 1:0 30 1] [69] 0 1
r 1.489740967 _1_ AGT  --- 69 cbr 1020 [13a 1 7 800] ------- [7:0 1:0 30 1] [69] 1 1
s 1.500000000 _7_ AGT  --- 70 cbr 1000 [0 0 0 0] ------- [7:0 1:0 32 0] [70] 0 1
r 1.500000000 _7_ RTR  --- 70 cbr 1000 [0 0 0 0] ------- [7:0 1:0 32 0] [70] 0 1
s 1.500000000 _7_ RTR  --- 70 cbr 1020 [0 0 0 0] ------- [7:0 1:0 30 1] [70] 0 1
r 1.509880967 _1_ AGT  --- 70 cbr 1020 [13a 1 7 800] ------- [7:0 1:0 30 1] [70] 1 1
s 1.520000000 _7_ AGT  --- 71 cbr 1000 [0 0 0 0] ------- [7:0 1:0 32 0] [71] 0 1
r 1.520000000 _7_ RTR  --- 71 cbr 1000 [0 0 0 0] ------- [7:0 1:0 32 0] [71] 0 1
s 1.520000000 _7_ RTR  --- 71 cbr 1020 [0 0 0 0] ------- [7:0 1:0 30 1] [71] 0 1
r 1.529920967 _1_ AGT  --- 71 cbr 1020 [13a 1 7 800] ------- [7:0 1:0 30 1] [71] 1 1
s 1.540000000 _7_ AGT  --- 72 cbr 1000 [0 0 0 0] ------- [7:0 1:0 32 0] [72] 0 1
r 1.540000000 _7_ RTR  --- 72 cbr 1000 [0 0 0 0] ------- [7:0 1:0 32 0] [72] 0 1