M 0.00000 0 (405.77, 47.86, 0.00), (348.88, 366.32), 6.11
M 0.00000 1 (5.28, 393.63, 0.00), (250.84, 179.19), 7.73
M 0.00000 2 (344.33, 107.08, 0.00), (53.19, 240.59), 8.14
M 0.00000 3 (341.60, 377.93, 0.00), (292.23, 193.22), 9.81
M 0.00000 4 (189.28, 442.72, 0.00), (283.78, 34.35), 6.17
M 0.00000 5 (89.91, 428.77, 0.00), (391.97, 379.65), 9.63
M 0.00000 6 (341.95, 303.67, 0.00), (125.81, 324.37), 14.36
M 0.00000 7 (337.00, 220.68, 0.00), (415.78, 337.78), 7.59
M 0.00000 8 (116.95, 252.36, 0.00), (445.57, 394.56), 7.91
M 0.00000 9 (151.35, 335.04, 0.00), (238.63, 253.22), 1.93
s 0.100000000 _7_ AGT  --- 0 cbr 1000 [0 0 0 0] ------- [7:0 1:0 32 0] [0] 0 2
r 0.100000000 _7_ RTR  --- 0 cbr 1000 [0 0 0 0] ------- [7:0 1:0 32 0] [0] 0 2
s 0.100000000 _7_ RTR  --- 0 AODV 48 [0 0 0 0] ------- [7:255 -1:255 30 0] [0x2 1 1 [1 0] [7 4]] (REQUEST)
r 0.101508275 _6_ RTR  --- 0 AODV 48 [0 ffffffff 7 800] ------- [7:255 -1:255 30 0] [0x2 1 1 [1 0] [7 4]] (REQUEST)
r 0.101508380 _2_ RTR  --- 0 AODV 48 [0 ffffffff 7 800] ------- [7:255 -1:255 30 0] [0x2 1 1 [1 0] [7 4]] (REQUEST)
r 0.101508519 _3_ RTR  --- 0 AODV 48 [0 ffffffff 7 800] ------- [7:255 -1:255 30 0] [0x2 1 1 [1 0] [7 4]] (REQUEST)
r 0.101508619 _0_ RTR  --- 0 AODV 48 [0 ffffffff 7 800] ------- [7:255 -1:255 30 0] [0x2 1 1 [1 0] [7 4]] (REQUEST)
r 0.101508726 _9_ RTR  --- 0 AODV 48 [0 ffffffff 7 800] ------- [7:255 -1:255 30 0] [0x2 1 1 [1 0] [7 4]] (REQUEST)
r 0.101508740 _8_ RTR  --- 0 AODV 48 [0 ffffffff 7 800] ------- [7:255 -1:255 30 0] [0x2 1 1 [1 0] [7 4]] (REQUEST)
s 0.103854744 _9_ RTR  --- 0 AODV 48 [0 ffffffff 7 800] ------- [9:255 -1:255 29 0] [0x2 2 1 [1 0] [7 4]] (REQUEST)
s 0.104638137 _3_ RTR  --- 0 AODV 48 [0 ffffffff 7 800] ------- [3:255 -1:255 29 0] [0x2 2 1 [1 0] [7 4]] (REQUEST)
r 0.105063040 _8_ RTR  --- 0 AODV 48 [0 ffffffff 9 800] ------- [9:255 -1:255 29 0] [0x2 2 1 [1 0] [7 4]] (REQUEST)
r 0.105063116 _5_ RTR  --- 0 AODV 48 [0 ffffffff 9 800] ------- [9:255 -1:255 29 0] [0x2 2 1 [1 0] [7 4]] (REQUEST)
r 0.105063123 _4_ RTR  --- 0 AODV 48 [0 ffffffff 9 800] ------- [9:255 -1:255 29 0] [0x2 2 1 [1 0] [7 4]] (REQUEST)
r 0.105063267 _1_ RTR  --- 0 AODV 48 [0 ffffffff 9 800] ------- [9:255 -1:255 29 0] [0x2 2 1 [1 0] [7 4]] (REQUEST)
s 0.105063267 _1_ RTR  --- 0 AODV 44 [0 0 0 0] ------- [1:255 7:255 30 9] [0x4 1 [1 4] 10.000000] (REPLY)
r 0.105063382 _6_ RTR  --- 0 AODV 48 [0 ffffffff 9 800] ------- [9:255 -1:255 29 0] [0x2 2 1 [1 0] [7 4]] (REQUEST)
r 0.105063392 _3_ RTR  --- 0 AODV 48 [0 ffffffff 9 800] ------- [9:255 -1:255 29 0] [0x2 2 1 [1 0] [7 4]] (REQUEST)
r 0.105063470 _7_ RTR  --- 0 AODV 48 [0 ffffffff 9 800] ------- [9:255 -1:255 29 0] [0x2 2 1 [1 0] [7 4]] (REQUEST)
s 0.105491061 _5_ RTR  --- 0 AODV 48 [0 ffffffff 9 800] ------- [5:255 -1:255 28 0] [0x2 3 1 [1 0] [7 4]] (REQUEST)
s 0.105920009 _6_ RTR  --- 0 AODV 48 [0 ffffffff 7 800] ------- [6:255 -1:255 29 0] [0x2 2 1 [1 0] [7 4]] (REQUEST)
r 0.106201636 _6_ RTR  --- 0 AODV 48 [0 ffffffff 3 800] ------- [3:255 -1:255 29 0] [0x2 2 1 [1 0] [7 4]] (REQUEST)
r 0.106201911 _7_ RTR  --- 0 AODV 48 [0 ffffffff 3 800] ------- [3:255 -1:255 29 0] [0x2 2 1 [1 0] [7 4]] (REQUEST)
r 0.106201943 _4_ RTR  --- 0 AODV 48 [0 ffffffff 3 800] ------- [3:255 -1:255 29 0] [0x2 2 1 [1 0] [7 4]] (REQUEST)
r 0.106202040 _9_ RTR  --- 0 AODV 48 [0 ffffffff 3 800] ------- [3:255 -1:255 29 0] [0x2 2 1 [1 0] [7 4]] (REQUEST)
r 0.107259879 _3_ RTR  --- 0 AODV 48 [0 ffffffff 6 800] ------- [6:255 -1:255 29 0] [0x2 2 1 [1 0] [7 4]] (REQUEST)
r 0.107259911 _7_ RTR  --- 0 AODV 48 [0 ffffffff 6 800] ------- [6:255 -1:255 29 0] [0x2 2 1 [1 0] [7 4]] (REQUEST)
r 0.107260274 _9_ RTR  --- 0 AODV 48 [0 ffffffff 6 800] ------- [6:255 -1:255 29 0] [0x2 2 1 [1 0] [7 4]] (REQUEST)
r 0.107260290 _2_ RTR  --- 0 AODV 48 [0 ffffffff 6 800] ------- [6:255 -1:255 29 0] [0x2 2 1 [1 0] [7 4]] (REQUEST)
r 0.107260318 _4_ RTR  --- 0 AODV 48 [0 ffffffff 6 800] ------- [6:255 -1:255 29 0] [0x2 2 1 [1 0] [7 4]] (REQUEST)
r 0.107260397 _8_ RTR  --- 0 AODV 48 [0 ffffffff 6 800] ------- [6:255 -1:255 29 0] [0x2 2 1 [1 0] [7 4]] (REQUEST)
s 0.107897391 _8_ RTR  --- 0 AODV 48 [0 ffffffff 7 800] ------- [8:255 -1:255 29 0] [0x2 2 1 [1 0] [7 4]] (REQUEST)
s 0.109499935 _2_ RTR  --- 0 AODV 48 [0 ffffffff 7 800] ------- [2:255 -1:255 29 0] [0x2 2 1 [1 0] [7 4]] (REQUEST)
r 0.109501404 _1_ RTR  --- 0 AODV 48 [0 ffffffff 5 800] ------- [5:255 -1:255 28 0] [0x2 3 1 [1 0] [7 4]] (REQUEST)
r 0.109501428 _4_ RTR  --- 0 AODV 48 [0 ffffffff 5 800] ------- [5:255 -1:255 28 0] [0x2 3 1 [1 0] [7 4]] (REQUEST)
r 0.109501469 _9_ RTR  --- 0 AODV 48 [0 ffffffff 5 800] ------- [5:255 -1:255 28 0] [0x2 3 1 [1 0] [7 4]] (REQUEST)
r 0.109501690 _8_ RTR  --- 0 AODV 48 [0 ffffffff 5 800] ------- [5:255 -1:255 28 0] [0x2 3 1 [1 0] [7 4]] (REQUEST)
s 0.109673380 _0_ RTR  --- 0 AODV 48 [0 ffffffff 7 800] ------- [0:255 -1:255 29 0] [0x2 2 1 [1 0] [7 4]] (REQUEST)
s 0.111463799 _4_ RTR  --- 0 AODV 48 [0 ffffffff 9 800] ------- [4:255 -1:255 28 0] [0x2 3 1 [1 0] [7 4]] (REQUEST)
r 0.112369931 _9_ RTR  --- 0 AODV 48 [0 ffffffff 8 800] ------- [8:255 -1:255 29 0] [0x2 2 1 [1 0] [7 4]] (REQUEST)
r 0.112370228 _5_ RTR  --- 0 AODV 48 [0 ffffffff 8 800] ------- [8:255 -1:255 29 0] [0x2 2 1 [1 0] [7 4]] (REQUEST)
r 0.112370233 _1_ RTR  --- 0 AODV 48 [0 ffffffff 8 800] ------- [8:255 -1:255 29 0] [0x2 2 1 [1 0] [7 4]] (REQUEST)
r 0.112370310 _4_ RTR  --- 0 AODV 48 [0 ffffffff 8 800] ------- [8:255 -1:255 29 0] [0x2 2 1 [1 0] [7 4]] (REQUEST)
r 0.112370375 _7_ RTR  --- 0 AODV 48 [0 ffffffff 8 800] ------- [8:255 -1:255 29 0] [0x2 2 1 [1 0] [7 4]] (REQUEST)
r 0.112370396 _6_ RTR  --- 0 AODV 48 [0 ffffffff 8 800] ------- [8:255 -1:255 29 0] [0x2 2 1 [1 0] [7 4]] (REQUEST)
r 0.114013801 _9_ RTR  --- 0 AODV 44 [13a 9 1 800] ------- [1:255 7:255 30 9] [0x4 1 [1 4] 10.000000] (REPLY)
f 0.114013801 _9_ RTR  --- 0 AODV 44 [13a 9 1 800] ------- [1:255 7:255 29 7] [0x4 2 [1 4] 10.000000] (REPLY)
r 0.115526511 _5_ RTR  --- 0 AODV 48 [0 ffffffff 4 800] ------- [4:255 -1:255 28 0] [0x2 3 1 [1 0] [7 4]] (REQUEST)
r 0.115526559 _9_ RTR  --- 0 AODV 48 [0 ffffffff 4 800] ------- [4:255 -1:255 28 0] [0x2 3 1 [1 0] [7 4]] (REQUEST)
r 0.115526731 _3_ RTR  --- 0 AODV 48 [0 ffffffff 4 800] ------- [4:255 -1:255 28 0] [0x2 3 1 [1 0] [7 4]] (REQUEST)
r 0.115526813 _1_ RTR  --- 0 AODV 48 [0 ffffffff 4 800] ------- [4:255 -1:255 28 0] [0x2 3 1 [1 0] [7 4]] (REQUEST)
r 0.115526854 _8_ RTR  --- 0 AODV 48 [0 ffffffff 4 800] ------- [4:255 -1:255 28 0] [0x2 3 1 [1 0] [7 4]] (REQUEST)
r 0.115526862 _6_ RTR  --- 0 AODV 48 [0 ffffffff 4 800] ------- [4:255 -1:255 28 0] [0x2 3 1 [1 0] [7 4]] (REQUEST)
s 0.120000000 _7_ AGT  --- 1 cbr 1000 [0 0 0 0] ------- [7:0 1:0 32 0] [1] 0 2
r 0.120000000 _7_ RTR  --- 1 cbr 1000 [0 0 0 0] ------- [7:0 1:0 32 0] [1] 0 2
r 0.120144642 _7_ RTR  --- 0 AODV 44 [13a 7 9 800] ------- [1:255 7:255 29 7] [0x4 2 [1 4] 10.000000] (REPLY)
s 0.120144642 _7_ RTR  --- 0 cbr 1020 [0 0 0 0] ------- [7:0 1:0 30 9] [0] 0 2
r 0.130090820 _9_ RTR  --- 0 cbr 1020 [13a 9 7 800] ------- [7:0 1:0 30 9] [0] 1 2
f 0.130090820 _9_ RTR  --- 0 cbr 1020 [13a 9 7 800] ------- [7:0 1:0 29 1] [0] 1 2
s 0.130144642 _7_ RTR  --- 1 cbr 1020 [0 0 0 0] ------- [7:0 1:0 30 9] [1] 0 2
r 0.139856387 _1_ AGT  --- 0 cbr 1020 [13a 1 9 800] ------- [7:0 1:0 29 1] [0] 2 2
s 0.140000000 _7_ AGT  --- 2 cbr 1000 [0 0 0 0] ------- [7:0 1:0 32 0] [2] 0 2
r 0.140000000 _7_ RTR  --- 2 cbr 1000 [0 0 0 0] ------- [7:0 1:0 32 0] [2] 0 2
s 0.140000000 _7_ RTR  --- 2 cbr 1020 [0 0 0 0] ------- [7:0 1:0 30 9] [2] 0 2
r 0.141454145 _0_ RTR  --- 0 AODV 48 [0 ffffffff 2 800] ------- [2:255 -1:255 29 0] [0x2 2 1 [1 0] [7 4]] (REQUEST)
r 0.141454240 _7_ RTR  --- 0 AODV 48 [0 ffffffff 2 800] ------- [2:255 -1:255 29 0] [0x2 2 1 [1 0] [7 4]] (REQUEST)
r 0.141454514 _6_ RTR  --- 0 AODV 48 [0 ffffffff 2 800] ------- [2:255 -1:255 29 0] [0x2 2 1 [1 0] [7 4]] (REQUEST)
r 0.142552431 _2_ RTR  --- 0 AODV 48 [0 ffffffff 0 800] ------- [0:255 -1:255 29 0] [0x2 2 1 [1 0] [7 4]] (REQUEST)
r 0.142552765 _7_ RTR  --- 0 AODV 48 [0 ffffffff 0 800] ------- [0:255 -1:255 29 0] [0x2 2 1 [1 0] [7 4]] (REQUEST)
r 0.152124943 _9_ RTR  --- 1 cbr 1020 [13a 9 7 800] ------- [7:0 1:0 30 9] [1] 1 2
f 0.152124943 _9_ RTR  --- 1 cbr 1020 [13a 9 7 800] ------- [7:0 1:0 29 1] [1] 1 2
s 0.160000000 _7_ AGT  --- 3 cbr 1000 [0 0 0 0] ------- [7:0 1:0 32 0] [3] 0 2
r 0.160000000 _7_ RTR  --- 3 cbr 1000 [0 0 0 0] ------- [7:0 1:0 32 0] [3] 0 2
s 0.160000000 _7_ RTR  --- 3 cbr 1020 [0 0 0 0] ------- [7:0 1:0 30 9] [3] 0 2
r 0.161850508 _1_ AGT  --- 1 cbr 1020 [13a 1 9 800] ------- [7:0 1:0 29 1] [1] 2 2
r 0.171961929 _9_ RTR  --- 2 cbr 1020 [13a 9 7 800] ------- [7:0 1:0 30 9] [2] 1 2
f 0.171961929 _9_ RTR  --- 2 cbr 1020 [13a 9 7 800] ------- [7:0 1:0 29 1] [2] 1 2
s 0.180000000 _7_ AGT  --- 4 cbr 1000 [0 0 0 0] ------- [7:0 1:0 32 0] [4] 0 2
r 0.180000000 _7_ RTR  --- 4 cbr 1000 [0 0 0 0] ------- [7:0 1:0 32 0] [4] 0 2
s 0.180000000 _7_ RTR  --- 4 cbr 1020 [0 0 0 0] ------- [7:0 1:0 30 9] [4] 0 2
r 0.181908833 _9_ RTR  --- 3 cbr 1020 [13a 9 7 800] ------- [7:0 1:0 30 9] [3] 1 2
f 0.181908833 _9_ RTR  --- 3 cbr 1020 [13a 9 7 800] ------- [7:0 1:0 29 1] [3] 1 2
r 0.191755736 _9_ RTR  --- 4 cbr 1020 [13a 9 7 800] ------- [7:0 1:0 30 9] [4] 1 2
f 0.191755736 _9_ RTR  --- 4 cbr 1020 [13a 9 7 800] ------- [7:0 1:0 29 1] [4] 1 2
s 0.200000000 _7_ AGT  --- 5 cbr 1000 [0 0 0 0] ------- [7:0 1:0 32 0] [5] 0 2
r 0.200000000 _7_ RTR  --- 5 cbr 1000 [0 0 0 0] ------- [7:0 1:0 32 0] [5] 0 2
s 0.200000000 _7_ RTR  --- 5 cbr 1020 [0 0 0 0] ------- [7:0 1:0 30 9] [5] 0 2
r 0.201461300 _1_ AGT  --- 2 cbr 1020 [13a 1 9 800] ------- [7:0 1:0 29 1] [2] 2 2
r 0.211607384 _1_ AGT  --- 3 cbr 1020 [13a 1 9 800] ------- [7:0 1:0 29 1] [3] 2 2
s 0.220000000 _7_ AGT  --- 6 cbr 1000 [0 0 0 0] ------- [7:0 1:0 32 0] [6] 0 2
r 0.220000000 _7_ RTR  --- 6 cbr 1000 [0 0 0 0] ------- [7:0 1:0 32 0] [6] 0 2
s 0.220000000 _7_ RTR  --- 6 cbr 1020 [0 0 0 0] ------- [7:0 1:0 30 9] [6] 0 2
r 0.221273467 _1_ AGT  --- 4 cbr 1020 [13a 1 9 800] ------- [7:0 1:0 29 1] [4] 2 2
r 0.231464886 _9_ RTR  --- 5 cbr 1020 [13a 9 7 800] ------- [7:0 1:0 30 9] [5] 1 2
f 0.231464886 _9_ RTR  --- 5 cbr 1020 [13a 9 7 800] ------- [7:0 1:0 29 1] [5] 1 2
s 0.240000000 _7_ AGT  --- 7 cbr 1000 [0 0 0 0] ------- [7:0 1:0 32 0] [7] 0 2
r 0.240000000 _7_ RTR  --- 7 cbr 1000 [0 0 0 0] ------- [7:0 1:0 32 0] [7] 0 2
s 0.240000000 _7_ RTR  --- 7 cbr 1020 [0 0 0 0] ------- [7:0 1:0 30 9] [7] 0 2
r 0.241291788 _9_ RTR  --- 6 cbr 1020 [13a 9 7 800] ------- [7:0 1:0 30 9] [6] 1 2
f 0.241291788 _9_ RTR  --- 6 cbr 1020 [13a 9 7 800] ------- [7:0 1:0 29 1] [6] 1 2
r 0.251117349 _1_ AGT  --- 5 cbr 1020 [13a 1 9 800] ------- [7:0 1:0 29 1] [5] 2 2
s 0.260000000 _7_ AGT  --- 8 cbr 1000 [0 0 0 0] ------- [7:0 1:0 32 0] [8] 0 2
r 0.260000000 _7_ RTR  --- 8 cbr 1000 [0 0 0 0] ------- [7:0 1:0 32 0] [8] 0 2
s 0.260000000 _7_ RTR  --- 8 cbr 1020 [0 0 0 0] ------- [7:0 1:0 30 9] [8] 0 2
r 0.260863429 _1_ AGT  --- 6 cbr 1020 [13a 1 9 800] ------- [7:0 1:0 29 1] [6] 2 2
r 0.270974846 _9_ RTR  --- 7 cbr 1020 [13a 9 7 800] ------- [7:0 1:0 30 9] [7] 1 2
f 0.270974846 _9_ RTR  --- 7 cbr 1020 [13a 9 7 800] ------- [7:0 1:0 29 1] [7] 1 2
s 0.280000000 _7_ AGT  --- 9 cbr 1000 [0 0 0 0] ------- [7:0 1:0 32 0] [9] 0 2
r 0.280000000 _7_ RTR  --- 9 cbr 1000 [0 0 0 0] ------- [7:0 1:0 32 0] [9] 0 2
s 0.280000000 _7_ RTR  --- 9 cbr 1020 [0 0 0 0] ------- [7:0 1:0 30 9] [9] 0 2
r 0.280640405 _1_ AGT  --- 7 cbr 1020 [13a 1 9 800] ------- [7:0 1:0 29 1] [7] 2 2
r 0.290911822 _9_ RTR  --- 8 cbr 1020 [13a 9 7 800] ------- [7:0 1:0 30 9] [8] 1 2
f 0.290911822 _9_ RTR  --- 8 cbr 1020 [13a 9 7 800] ------- [7:0 1:0 29 1] [8] 1 2
s 0.300000000 _7_ AGT  --- 10 cbr 1000 [0 0 0 0] ------- [7:0 1:0 32 0] [10] 0 2
r 0.300000000 _7_ RTR  --- 10 cbr 1000 [0 0 0 0] ------- [7:0 1:0 32 0] [10] 0 2
s 0.300000000 _7_ RTR  --- 10 cbr 1020 [0 0 0 0] ------- [7:0 1:0 30 9] [10] 0 2
r 0.300598723 _9_ RTR  --- 9 cbr 1020 [13a 9 7 800] ------- [7:0 1:0 30 9] [9] 1 2
f 0.300598723 _9_ RTR  --- 9 cbr 1020 [13a 9 7 800] ------- [7:0 1:0 29 1] [9] 1 2
r 0.310524281 _1_ AGT  --- 8 cbr 1020 [13a 1 9 800] ------- [7:0 1:0 29 1] [8] 2 2
s 0.320000000 _7_ AGT  --- 11 cbr 1000 [0 0 0 0] ------- [7:0 1:0 32 0] [11] 0 2
r 0.320000000 _7_ RTR  --- 11 cbr 1000 [0 0 0 0] ------- [7:0 1:0 32 0] [11] 0 2
s 0.320000000 _7_ RTR  --- 11 cbr 1020 [0 0 0 0] ------- [7:0 1:0 30 9] [11] 0 2
r 0.320430356 _1_ AGT  --- 9 cbr 1020 [13a 1 9 800] ------- [7:0 1:0 29 1] [9] 2 2
r 0.330701772 _9_ RTR  --- 10 cbr 1020 [13a 9 7 800] ------- [7:0 1:0 30 9] [10] 1 2
f 0.330701772 _9_ RTR  --- 10 cbr 1020 [13a 9 7 800] ------- [7:0 1:0 29 1] [10] 1 2
s 0.340000000 _7_ AGT  --- 12 cbr 1000 [0 0 0 0] ------- [7:0 1:0 32 0] [12] 0 2
r 0.340000000 _7_ RTR  --- 12 cbr 1000 [0 0 0 0] ------- [7:0 1:0 32 0] [12] 0 2
s 0.340000000 _7_ RTR  --- 12 cbr 1020 [0 0 0 0] ------- [7:0 1:0 30 9] [12] 0 2
r 0.340408672 _9_ RTR  --- 11 cbr 1020 [13a 9 7 800] ------- [7:0 1:0 30 9] [11] 1 2
f 0.340408672 _9_ RTR  --- 11 cbr 1020 [13a 9 7 800] ------- [7:0 1:0 29 1] [11] 1 2
r 0.350334227 _1_ AGT  --- 10 cbr 1020 [13a 1 9 800] ------- [7:0 1:0 29 1] [10] 2 2
s 0.360000000 _7_ AGT  --- 13 cbr 1000 [0 0 0 0] ------- [7:0 1:0 32 0] [13] 0 2
r 0.360000000 _7_ RTR  --- 13 cbr 1000 [0 0 0 0] ------- [7:0 1:0 32 0] [13] 0 2
s 0.360000000 _7_ RTR  --- 13 cbr 1020 [0 0 0 0] ------- [7:0 1:0 30 9] [13] 0 2
r 0.360120300 _1_ AGT  --- 11 cbr 1020 [13a 1 9 800] ------- [7:0 1:0 29 1] [11] 2 2
r 0.370371714 _9_ RTR  --- 12 cbr 1020 [13a 9 7 800] ------- [7:0 1:0 30 9] [12] 1 2
f 0.370371714 _9_ RTR  --- 12 cbr 1020 [13a 9 7 800] ------- [7:0 1:0 29 1] [12] 1 2
s 0.380000000 _7_ AGT  --- 14 cbr 1000 [0 0 0 0] ------- [7:0 1:0 32 0] [14] 0 2
r 0.380000000 _7_ RTR  --- 14 cbr 1000 [0 0 0 0] ------- [7:0 1:0 32 0] [14] 0 2
s 0.380000000 _7_ RTR  --- 14 cbr 1020 [0 0 0 0] ------- [7:0 1:0 30 9] [14] 0 2
r 0.380118614 _9_ RTR  --- 13 cbr 1020 [13a 9 7 800] ------- [7:0 1:0 30 9] [13] 1 2
f 0.380118614 _9_ RTR  --- 13 cbr 1020 [13a 9 7 800] ------- [7:0 1:0 29 1] [13] 1 2
r 0.389804167 _1_ AGT  --- 12 cbr 1020 [13a 1 9 800] ------- [7:0 1:0 29 1] [12] 2 2
r 0.399670237 _1_ AGT  --- 13 cbr 1020 [13a 1 9 800] ------- [7:0 1:0 29 1] [13] 2 2
s 0.400000000 _7_ AGT  --- 15 cbr 1000 [0 0 0 0] ------- [7:0 1:0 32 0] [15] 0 2
r 0.400000000 _7_ RTR  --- 15 cbr 1000 [0 0 0 0] ------- [7:0 1:0 32 0] [15] 0 2
s 0.400000000 _7_ RTR  --- 15 cbr 1020 [0 0 0 0] ------- [7:0 1:0 30 9] [15] 0 2
r 0.409961649 _9_ RTR  --- 14 cbr 1020 [13a 9 7 800] ------- [7:0 1:0 30 9] [14] 1 2
f 0.409961649 _9_ RTR  --- 14 cbr 1020 [13a 9 7 800] ------- [7:0 1:0 29 1] [14] 1 2
r 0.419967200 _1_ AGT  --- 14 cbr 1020 [13a 1 9 800] ------- [7:0 1:0 29 1] [14] 2 2
s 0.420000000 _7_ AGT  --- 16 cbr 1000 [0 0 0 0] ------- [7:0 1:0 32 0] [16] 0 2
r 0.420000000 _7_ RTR  --- 16 cbr 1000 [0 0 0 0] ------- [7:0 1:0 32 0] [16] 0 2
s 0.420000000 _7_ RTR  --- 16 cbr 1020 [0 0 0 0] ------- [7:0 1:0 30 9] [16] 0 2
r 0.430278612 _9_ RTR  --- 15 cbr 1020 [13a 9 7 800] ------- [7:0 1:0 30 9] [15] 1 2
f 0.430278612 _9_ RTR  --- 15 cbr 1020 [13a 9 7 800] ------- [7:0 1:0 29 1] [15] 1 2
s 0.440000000 _7_ AGT  --- 17 cbr 1000 [0 0 0 0] ------- [7:0 1:0 32 0] [17] 0 2
r 0.440000000 _7_ RTR  --- 17 cbr 1000 [0 0 0 0] ------- [7:0 1:0 32 0] [17] 0 2
s 0.440000000 _7_ RTR  --- 17 cbr 1020 [0 0 0 0] ------- [7:0 1:0 30 9] [17] 0 2
r 0.440004162 _1_ AGT  --- 15 cbr 1020 [13a 1 9 800] ------- [7:0 1:0 29 1] [15] 2 2
r 0.450575573 _9_ RTR  --- 16 cbr 1020 [13a 9 7 800] ------- [7:0 1:0 30 9] [16] 1 2
f 0.450575573 _9_ RTR  --- 16 cbr 1020 [13a 9 7 800] ------- [7:0 1:0 29 1] [16] 1 2
s 0.460000000 _7_ AGT  --- 18 cbr 1000 [0 0 0 0] ------- [7:0 1:0 32 0] [18] 0 2
r 0.460000000 _7_ RTR  --- 18 cbr 1000 [0 0 0 0] ------- [7:0 1:0 32 0] [18] 0 2
s 0.460000000 _7_ RTR  --- 18 cbr 1020 [0 0 0 0] ------- [7:0 1:0 30 9] [18] 0 2
r 0.460682471 _9_ RTR  --- 17 cbr 1020 [13a 9 7 800] ------- [7:0 1:0 30 9] [17] 1 2
f 0.460682471 _9_ RTR  --- 17 cbr 1020 [13a 9 7 800] ------- [7:0 1:0 29 1] [17] 1 2
r 0.470508020 _1_ AGT  --- 16 cbr 1020 [13a 1 9 800] ------- [7:0 1:0 29 1] [16] 2 2
s 0.480000000 _7_ AGT  --- 19 cbr 1000 [0 0 0 0] ------- [7:0 1:0 32 0] [19] 0 2
r 0.480000000 _7_ RTR  --- 19 cbr 1000 [0 0 0 0] ------- [7:0 1:0 32 0] [19] 0 2
s 0.480000000 _7_ RTR  --- 19 cbr 1020 [0 0 0 0] ------- [7:0 1:0 30 9] [19] 0 2
r 0.480474084 _1_ AGT  --- 17 cbr 1020 [13a 1 9 800] ------- [7:0 1:0 29 1] [17] 2 2
r 0.490905494 _9_ RTR  --- 18 cbr 1020 [13a 9 7 800] ------- [7:0 1:0 30 9] [18] 1 2
f 0.490905494 _9_ RTR  --- 18 cbr 1020 [13a 9 7 800] ------- [7:0 1:0 29 1] [18] 1 2
s 0.500000000 _7_ AGT  --- 20 cbr 1000 [0 0 0 0] ------- [7:0 1:0 32 0] [20] 0 2
r 0.500000000 _7_ RTR  --- 20 cbr 1000 [0 0 0 0] ------- [7:0 1:0 32 0] [20] 0 2
s 0.500000000 _7_ RTR  --- 20 cbr 1020 [0 0 0 0] ------- [7:0 1:0 30 9] [20] 0 2
r 0.500871040 _1_ AGT  --- 18 cbr 1020 [13a 1 9 800] ------- [7:0 1:0 29 1] [18] 2 2
r 0.510962449 _9_ RTR  --- 19 cbr 1020 [13a 9 7 800] ------- [7:0 1:0 30 9] [19] 1 2
f 0.510962449 _9_ RTR  --- 19 cbr 1020 [13a 9 7 800] ------- [7:0 1:0 29 1] [19] 1 2
s 0.520000000 _7_ AGT  --- 21 cbr 1000 [0 0 0 0] ------- [7:0 1:0 32 0] [21] 0 2
r 0.520000000 _7_ RTR  --- 21 cbr 1000 [0 0 0 0] ------- [7:0 1:0 32 0] [21] 0 2
s 0.520000000 _7_ RTR  --- 21 cbr 1020 [0 0 0 0] ------- [7:0 1:0 30 9] [21] 0 2
r 0.520849346 _9_ RTR  --- 20 cbr 1020 [13a 9 7 800] ------- [7:0 1:0 30 9] [20] 1 2
f 0.520849346 _9_ RTR  --- 20 cbr 1020 [13a 9 7 800] ------- [7:0 1:0 29 1] [20] 1 2
r 0.530696243 _9_ RTR  --- 21 cbr 1020 [13a 9 7 800] ------- [7:0 1:0 30 9] [21] 1 2
f 0.530696243 _9_ RTR  --- 21 cbr 1020 [13a 9 7 800] ------- [7:0 1:0 29 1] [21] 1 2
s 0.540000000 _7_ AGT  --- 22 cbr 1000 [0 0 0 0] ------- [7:0 1:0 32 0] [22] 0 2
r 0.540000000 _7_ RTR  --- 22 cbr 1000 [0 0 0 0] ------- [7:0 1:0 32 0] [22] 0 2
s 0.540000000 _7_ RTR  --- 22 cbr 1020 [0 0 0 0] ------- [7:0 1:0 30 9] [22] 0 2
r 0.540541788 _1_ AGT  --- 19 cbr 1020 [13a 1 9 800] ------- [7:0 1:0 29 1] [19] 2 2
r 0.550607846 _1_ AGT  --- 20 cbr 1020 [13a 1 9 800] ------- [7:0 1:0 29 1] [20] 2 2
s 0.560000000 _7_ AGT  --- 23 cbr 1000 [0 0 0 0] ------- [7:0 1:0 32 0] [23] 0 2
r 0.560000000 _7_ RTR  --- 23 cbr 1000 [0 0 0 0] ------- [7:0 1:0 32 0] [23] 0 2
s 0.560000000 _7_ RTR  --- 23 cbr 1020 [0 0 0 0] ------- [7:0 1:0 30 9] [23] 0 2
r 0.560393905 _1_ AGT  --- 21 cbr 1020 [13a 1 9 800] ------- [7:0 1:0 29 1] [21] 2 2
r 0.570845311 _9_ RTR  --- 22 cbr 1020 [13a 9 7 800] ------- [7:0 1:0 30 9] [22] 1 2
f 0.570845311 _9_ RTR  --- 22 cbr 1020 [13a 9 7 800] ------- [7:0 1:0 29 1] [22] 1 2
s 0.580000000 _7_ AGT  --- 24 cbr 1000 [0 0 0 0] ------- [7:0 1:0 32 0] [24] 0 2
r 0.580000000 _7_ RTR  --- 24 cbr 1000 [0 0 0 0] ------- [7:0 1:0 32 0] [24] 0 2
s 0.580000000 _7_ RTR  --- 24 cbr 1020 [0 0 0 0] ------- [7:0 1:0 30 9] [24] 0 2
r 0.580512207 _9_ RTR  --- 23 cbr 1020 [13a 9 7 800] ------- [7:0 1:0 30 9] [23] 1 2
f 0.580512207 _9_ RTR  --- 23 cbr 1020 [13a 9 7 800] ------- [7:0 1:0 29 1] [23] 1 2
r 0.590319103 _9_ RTR  --- 24 cbr 1020 [13a 9 7 800] ------- [7:0 1:0 30 9] [24] 1 2
f 0.590319103 _9_ RTR  --- 24 cbr 1020 [13a 9 7 800] ------- [7:0 1:0 29 1] [24] 1 2
s 0.600000000 _7_ AGT  --- 25 cbr 1000 [0 0 0 0] ------- [7:0 1:0 32 0] [25] 0 2
r 0.600000000 _7_ RTR  --- 25 cbr 1000 [0 0 0 0] ------- [7:0 1:0 32 0] [25] 0 2
s 0.600000000 _7_ RTR  --- 25 cbr 1020 [0 0 0 0] ------- [7:0 1:0 30 9] [25] 0 2
r 0.600064644 _1_ AGT  --- 22 cbr 1020 [13a 1 9 800] ------- [7:0 1:0 29 1] [22] 2 2
r 0.610050699 _1_ AGT  --- 23 cbr 1020 [13a 1 9 800] ------- [7:0 1:0 29 1] [23] 2 2
s 0.620000000 _7_ AGT  --- 26 cbr 1000 [0 0 0 0] ------- [7:0 1:0 32 0] [26] 0 2
r 0.620000000 _7_ RTR  --- 26 cbr 1000 [0 0 0 0] ------- [7:0 1:0 32 0] [26] 0 2
s 0.620000000 _7_ RTR  --- 26 cbr 1020 [0 0 0 0] ------- [7:0 1:0 30 9] [26] 0 2
r 0.620136752 _1_ AGT  --- 24 cbr 1020 [13a 1 9 800] ------- [7:0 1:0 29 1] [24] 2 2
r 0.630428157 _9_ RTR  --- 25 cbr 1020 [13a 9 7 800] ------- [7:0 1:0 30 9] [25] 1 2
f 0.630428157 _9_ RTR  --- 25 cbr 1020 [13a 9 7 800] ------- [7:0 1:0 29 1] [25] 1 2
s 0.640000000 _7_ AGT  --- 27 cbr 1000 [0 0 0 0] ------- [7:0 1:0 32 0] [27] 0 2
r 0.640000000 _7_ RTR  --- 27 cbr 1000 [0 0 0 0] ------- [7:0 1:0 32 0] [27] 0 2
s 0.640000000 _7_ RTR  --- 27 cbr 1020 [0 0 0 0] ------- [7:0 1:0 30 9] [27] 0 2
r 0.640255052 _9_ RTR  --- 26 cbr 1020 [13a 9 7 800] ------- [7:0 1:0 30 9] [26] 1 2
f 0.640255052 _9_ RTR  --- 26 cbr 1020 [13a 9 7 800] ------- [7:0 1:0 29 1] [26] 1 2
r 0.649941946 _9_ RTR  --- 27 cbr 1020 [13a 9 7 800] ------- [7:0 1:0 30 9] [27] 1 2
f 0.649941946 _9_ RTR  --- 27 cbr 1020 [13a 9 7 800] ------- [7:0 1:0 29 1] [27] 1 2
r 0.659747484 _1_ AGT  --- 25 cbr 1020 [13a 1 9 800] ------- [7:0 1:0 29 1] [25] 2 2
s 0.660000000 _7_ AGT  --- 28 cbr 1000 [0 0 0 0] ------- [7:0 1:0 32 0] [28] 0 2
r 0.660000000 _7_ RTR  --- 28 cbr 1000 [0 0 0 0] ------- [7:0 1:0 32 0] [28] 0 2
s 0.660000000 _7_ RTR  --- 28 cbr 1020 [0 0 0 0] ------- [7:0 1:0 30 9] [28] 0 2
r 0.669513534 _1_ AGT  --- 26 cbr 1020 [13a 1 9 800] ------- [7:0 1:0 29 1] [26] 2 2
r 0.679179584 _1_ AGT  --- 27 cbr 1020 [13a 1 9 800] ------- [7:0 1:0 29 1] [27] 2 2
s 0.680000000 _7_ AGT  --- 29 cbr 1000 [0 0 0 0] ------- [7:0 1:0 32 0] [29] 0 2
r 0.680000000 _7_ RTR  --- 29 cbr 1000 [0 0 0 0] ------- [7:0 1:0 32 0] [29] 0 2
s 0.680000000 _7_ RTR  --- 29 cbr 1020 [0 0 0 0] ------- [7:0 1:0 30 9] [29] 0 2
r 0.689350986 _9_ RTR  --- 28 cbr 1020 [13a 9 7 800] ------- [7:0 1:0 30 9] [28] 1 2
f 0.689350986 _9_ RTR  --- 28 cbr 1020 [13a 9 7 800] ------- [7:0 1:0 29 1] [28] 1 2
r 0.699536522 _1_ AGT  --- 28 cbr 1020 [13a 1 9 800] ------- [7:0 1:0 29 1] [28] 2 2
s 0.700000000 _7_ AGT  --- 30 cbr 1000 [0 0 0 0] ------- [7:0 1:0 32 0] [30] 0 2
r 0.700000000 _7_ RTR  --- 30 cbr 1000 [0 0 0 0] ------- [7:0 1:0 32 0] [30] 0 2
s 0.700000000 _7_ RTR  --- 30 cbr 1020 [0 0 0 0] ------- [7:0 1:0 30 9] [30] 0 2
r 0.709667924 _9_ RTR  --- 29 cbr 1020 [13a 9 7 800] ------- [7:0 1:0 30 9] [29] 1 2
f 0.709667924 _9_ RTR  --- 29 cbr 1020 [13a 9 7 800] ------- [7:0 1:0 29 1] [29] 1 2
r 0.719353459 _1_ AGT  --- 29 cbr 1020 [13a 1 9 800] ------- [7:0 1:0 29 1] [29] 2 2
s 0.720000000 _7_ AGT  --- 31 cbr 1000 [0 0 0 0] ------- [7:0 1:0 32 0] [31] 0 2
r 0.720000000 _7_ RTR  --- 31 cbr 1000 [0 0 0 0] ------- [7:0 1:0 32 0] [31] 0 2
s 0.720000000 _7_ RTR  --- 31 cbr 1020 [0 0 0 0] ------- [7:0 1:0 30 9] [31] 0 2
r 0.729404860 _9_ RTR  --- 30 cbr 1020 [13a 9 7 800] ------- [7:0 1:0 30 9] [30] 1 2
f 0.729404860 _9_ RTR  --- 30 cbr 1020 [13a 9 7 800] ------- [7:0 1:0 29 1] [30] 1 2
r 0.739091753 _9_ RTR  --- 31 cbr 1020 [13a 9 7 800] ------- [7:0 1:0 30 9] [31] 1 2
f 0.739091753 _9_ RTR  --- 31 cbr 1020 [13a 9 7 800] ------- [7:0 1:0 29 1] [31] 1 2
s 0.740000000 _7_ AGT  --- 32 cbr 1000 [0 0 0 0] ------- [7:0 1:0 32 0] [32] 0 2
r 0.740000000 _7_ RTR  --- 32 cbr 1000 [0 0 0 0] ------- [7:0 1:0 32 0] [32] 0 2
s 0.740000000 _7_ RTR  --- 32 cbr 1020 [0 0 0 0] ------- [7:0 1:0 30 9] [32] 0 2
r 0.748997286 _1_ AGT  --- 30 cbr 1020 [13a 1 9 800] ------- [7:0 1:0 29 1] [30] 2 2
r 0.759103329 _1_ AGT  --- 31 cbr 1020 [13a 1 9 800] ------- [7:0 1:0 29 1] [31] 2 2
s 0.760000000 _7_ AGT  --- 33 cbr 1000 [0 0 0 0] ------- [7:0 1:0 32 0] [33] 0 2
r 0.760000000 _7_ RTR  --- 33 cbr 1000 [0 0 0 0] ------- [7:0 1:0 32 0] [33] 0 2
s 0.760000000 _7_ RTR  --- 33 cbr 1020 [0 0 0 0] ------- [7:0 1:0 30 9] [33] 0 2
r 0.769454729 _9_ RTR  --- 32 cbr 1020 [13a 9 7 800] ------- [7:0 1:0 30 9] [32] 1 2
f 0.769454729 _9_ RTR  --- 32 cbr 1020 [13a 9 7 800] ------- [7:0 1:0 29 1] [32] 1 2
r 0.779441621 _9_ RTR  --- 33 cbr 1020 [13a 9 7 800] ------- [7:0 1:0 30 9] [33] 1 2
f 0.779441621 _9_ RTR  --- 33 cbr 1020 [13a 9 7 800] ------- [7:0 1:0 29 1] [33] 1 2
s 0.780000000 _7_ AGT  --- 34 cbr 1000 [0 0 0 0] ------- [7:0 1:0 32 0] [34] 0 2
r 0.780000000 _7_ RTR  --- 34 cbr 1000 [0 0 0 0] ------- [7:0 1:0 32 0] [34] 0 2
s 0.780000000 _7_ RTR  --- 34 cbr 1020 [0 0 0 0] ------- [7:0 1:0 30 9] [34] 0 2
r 0.789267152 _1_ AGT  --- 32 cbr 1020 [13a 1 9 800] ------- [7:0 1:0 29 1] [32] 2 2
r 0.799338551 _9_ RTR  --- 34 cbr 1020 [13a 9 7 800] ------- [7:0 1:0 30 9] [34] 1 2
f 0.799338551 _9_ RTR  --- 34 cbr 1020 [13a 9 7 800] ------- [7:0 1:0 29 1] [34] 1 2
s 0.800000000 _7_ AGT  --- 35 cbr 1000 [0 0 0 0] ------- [7:0 1:0 32 0] [35] 0 2
r 0.800000000 _7_ RTR  --- 35 cbr 1000 [0 0 0 0] ------- [7:0 1:0 32 0] [35] 0 2
s 0.800000000 _7_ RTR  --- 35 cbr 1020 [0 0 0 0] ------- [7:0 1:0 30 9] [35] 0 2
r 0.809144081 _1_ AGT  --- 33 cbr 1020 [13a 1 9 800] ------- [7:0 1:0 29 1] [33] 2 2
r 0.818950120 _1_ AGT  --- 34 cbr 1020 [13a 1 9 800] ------- [7:0 1:0 29 1] [34] 2 2
s 0.820000000 _7_ AGT  --- 36 cbr 1000 [0 0 0 0] ------- [7:0 1:0 32 0] [36] 0 2
r 0.820000000 _7_ RTR  --- 36 cbr 1000 [0 0 0 0] ------- [7:0 1:0 32 0] [36] 0 2
s 0.820000000 _7_ RTR  --- 36 cbr 1020 [0 0 0 0] ------- [7:0 1:0 30 9] [36] 0 2
r 0.829041517 _9_ RTR  --- 35 cbr 1020 [13a 9 7 800] ------- [7:0 1:0 30 9] [35] 1 2
f 0.829041517 _9_ RTR  --- 35 cbr 1020 [13a 9 7 800] ------- [7:0 1:0 29 1] [35] 1 2
r 0.838707046 _1_ AGT  --- 35 cbr 1020 [13a 1 9 800] ------- [7:0 1:0 29 1] [35] 2 2
s 0.840000000 _7_ AGT  --- 37 cbr 1000 [0 0 0 0] ------- [7:0 1:0 32 0] [37] 0 2
r 0.840000000 _7_ RTR  --- 37 cbr 1000 [0 0 0 0] ------- [7:0 1:0 32 0] [37] 0 2
s 0.840000000 _7_ RTR  --- 37 cbr 1020 [0 0 0 0] ------- [7:0 1:0 30 9] [37] 0 2
r 0.848838443 _9_ RTR  --- 36 cbr 1020 [13a 9 7 800] ------- [7:0 1:0 30 9] [36] 1 2
f 0.848838443 _9_ RTR  --- 36 cbr 1020 [13a 9 7 800] ------- [7:0 1:0 29 1] [36] 1 2
r 0.859043970 _1_ AGT  --- 36 cbr 1020 [13a 1 9 800] ------- [7:0 1:0 29 1] [36] 2 2
s 0.860000000 _7_ AGT  --- 38 cbr 1000 [0 0 0 0] ------- [7:0 1:0 32 0] [38] 0 2
r 0.860000000 _7_ RTR  --- 38 cbr 1000 [0 0 0 0] ------- [7:0 1:0 32 0] [38] 0 2
s 0.860000000 _7_ RTR  --- 38 cbr 1020 [0 0 0 0] ------- [7:0 1:0 30 9] [38] 0 2
r 0.869115366 _9_ RTR  --- 37 cbr 1020 [13a 9 7 800] ------- [7:0 1:0 30 9] [37] 1 2
f 0.869115366 _9_ RTR  --- 37 cbr 1020 [13a 9 7 800] ------- [7:0 1:0 29 1] [37] 1 2
r 0.878960892 _1_ AGT  --- 37 cbr 1020 [13a 1 9 800] ------- [7:0 1:0 29 1] [37] 2 2
s 0.880000000 _7_ AGT  --- 39 cbr 1000 [0 0 0 0] ------- [7:0 1:0 32 0] [39] 0 2
r 0.880000000 _7_ RTR  --- 39 cbr 1000 [0 0 0 0] ------- [7:0 1:0 32 0] [39] 0 2
s 0.880000000 _7_ RTR  --- 39 cbr 1020 [0 0 0 0] ------- [7:0 1:0 30 9] [39] 0 2
r 0.889412287 _9_ RTR  --- 38 cbr 1020 [13a 9 7 800] ------- [7:0 1:0 30 9] [38] 1 2
f 0.889412287 _9_ RTR  --- 38 cbr 1020 [13a 9 7 800] ------- [7:0 1:0 29 1] [38] 1 2
r 0.899219177 _9_ RTR  --- 39 cbr 1020 [13a 9 7 800] ------- [7:0 1:0 30 9] [39] 1 2
f 0.899219177 _9_ RTR  --- 39 cbr 1020 [13a 9 7 800] ------- [7:0 1:0 29 1] [39] 1 2
s 0.900000000 _7_ AGT  --- 40 cbr 1000 [0 0 0 0] ------- [7:0 1:0 32 0] [40] 0 2
r 0.900000000 _7_ RTR  --- 40 cbr 1000 [0 0 0 0] ------- [7:0 1:0 32 0] [40] 0 2
s 0.900000000 _7_ RTR  --- 40 cbr 1020 [0 0 0 0] ------- [7:0 1:0 30 9] [40] 0 2
r 0.909264702 _1_ AGT  --- 38 cbr 1020 [13a 1 9 800] ------- [7:0 1:0 29 1] [38] 2 2
r 0.919030734 _1_ AGT  --- 39 cbr 1020 [13a 1 9 800] ------- [7:0 1:0 29 1] [39] 2 2
s 0.920000000 _7_ AGT  --- 41 cbr 1000 [0 0 0 0] ------- [7:0 1:0 32 0] [41] 0 2
r 0.920000000 _7_ RTR  --- 41 cbr 1000 [0 0 0 0] ------- [7:0 1:0 32 0] [41] 0 2
s 0.920000000 _7_ RTR  --- 41 cbr 1020 [0 0 0 0] ------- [7:0 1:0 30 9] [41] 0 2
r 0.929582128 _9_ RTR  --- 40 cbr 1020 [13a 9 7 800] ------- [7:0 1:0 30 9] [40] 1 2
f 0.929582128 _9_ RTR  --- 40 cbr 1020 [13a 9 7 800] ------- [7:0 1:0 29 1] [40] 1 2
r 0.939247651 _1_ AGT  --- 40 cbr 1020 [13a 1 9 800] ------- [7:0 1:0 29 1] [40] 2 2
s 0.940000000 _7_ AGT  --- 42 cbr 1000 [0 0 0 0] ------- [7:0 1:0 32 0] [42] 0 2
r 0.940000000 _7_ RTR  --- 42 cbr 1000 [0 0 0 0] ------- [7:0 1:0 32 0] [42] 0 2
s 0.940000000 _7_ RTR  --- 42 cbr 1020 [0 0 0 0] ------- [7:0 1:0 30 9] [42] 0 2
r 0.949659044 _9_ RTR  --- 41 cbr 1020 [13a 9 7 800] ------- [7:0 1:0 30 9] [41] 1 2
f 0.949659044 _9_ RTR  --- 41 cbr 1020 [13a 9 7 800] ------- [7:0 1:0 29 1] [41] 1 2
r 0.959325933 _9_ RTR  --- 42 cbr 1020 [13a 9 7 800] ------- [7:0 1:0 30 9] [42] 1 2
f 0.959325933 _9_ RTR  --- 42 cbr 1020 [13a 9 7 800] ------- [7:0 1:0 29 1] [42] 1 2
s 0.960000000 _7_ AGT  --- 43 cbr 1000 [0 0 0 0] ------- [7:0 1:0 32 0] [43] 0 2
r 0.960000000 _7_ RTR  --- 43 cbr 1000 [0 0 0 0] ------- [7:0 1:0 32 0] [43] 0 2
s 0.960000000 _7_ RTR  --- 43 cbr 1020 [0 0 0 0] ------- [7:0 1:0 30 9] [43] 0 2
r 0.969231454 _1_ AGT  --- 41 cbr 1020 [13a 1 9 800] ------- [7:0 1:0 29 1] [41] 2 2
r 0.979057481 _1_ AGT  --- 42 cbr 1020 [13a 1 9 800] ------- [7:0 1:0 29 1] [42] 2 2
s 0.980000000 _7_ AGT  --- 44 cbr 1000 [0 0 0 0] ------- [7:0 1:0 32 0] [44] 0 2
r 0.980000000 _7_ RTR  --- 44 cbr 1000 [0 0 0 0] ------- [7:0 1:0 32 0] [44] 0 2
s 0.980000000 _7_ RTR  --- 44 cbr 1020 [0 0 0 0] ------- [7:0 1:0 30 9] [44] 0 2
r 0.989448873 _9_ RTR  --- 43 cbr 1020 [13a 9 7 800] ------- [7:0 1:0 30 9] [43] 1 2
f 0.989448873 _9_ RTR  --- 43 cbr 1020 [13a 9 7 800] ------- [7:0 1:0 29 1] [43] 1 2
r 0.999255762 _9_ RTR  --- 44 cbr 1020 [13a 9 7 800] ------- [7:0 1:0 30 9] [44] 1 2
f 0.999255762 _9_ RTR  --- 44 cbr 1020 [13a 9 7 800] ------- [7:0 1:0 29 1] [44] 1 2
s 1.000000000 _7_ AGT  --- 45 cbr 1000 [0 0 0 0] ------- [7:0 1:0 32 0] [45] 0 2
r 1.000000000 _7_ RTR  --- 45 cbr 1000 [0 0 0 0] ------- [7:0 1:0 32 0] [45] 0 2
s 1.000000000 _7_ RTR  --- 45 cbr 1020 [0 0 0 0] ------- [7:0 1:0 30 9] [45] 0 2
r 1.009381281 _1_ AGT  --- 43 cbr 1020 [13a 1 9 800] ------- [7:0 1:0 29 1] [43] 2 2
r 1.019512671 _9_ RTR  --- 45 cbr 1020 [13a 9 7 800] ------- [7:0 1:0 30 9] [45] 1 2
f 1.019512671 _9_ RTR  --- 45 cbr 1020 [13a 9 7 800] ------- [7:0 1:0 29 1] [45] 1 2
s 1.020000000 _7_ AGT  --- 46 cbr 1000 [0 0 0 0] ------- [7:0 1:0 32 0] [46] 0 2
r 1.020000000 _7_ RTR  --- 46 cbr 1000 [0 0 0 0] ------- [7:0 1:0 32 0] [46] 0 2